/*--------------------------------*- C++ -*----------------------------------*\
| =========                 |                                                 |
| \\      /  F ield         | OpenFOAM: The Open Source CFD Toolbox           |
|  \\    /   O peration     | Version:  v1912                                 |
|   \\  /    A nd           | Website:  www.openfoam.com                      |
|    \\/     M anipulation  |                                                 |
\*---------------------------------------------------------------------------*/
FoamFile
{
    version     2.0;
    format      ascii;
    class       volScalarField;
    location    "0.2";
    object      p;
}
// * * * * * * * * * * * * * * * * * * * * * * * * * * * * * * * * * * * * * //

dimensions      [1 -1 -2 0 0 0 0];


internalField   nonuniform List<scalar> 
16128
(
0.982823
0.918704
0.845905
0.926058
0.944111
1.09557
1.21927
1.19056
1.13719
1.13321
0.981237
1.03412
1.0588
1.04039
1.02585
0.985733
1.02184
1.08411
1.0876
1.05342
1.04538
1.11722
1.04775
1.02187
0.978834
0.974258
0.939097
1.01544
1.03971
1.02862
1.05722
1.06132
1.06952
1.06995
1.14809
2.55312
10.6945
14.2645
14.3397
13.8665
13.3023
13.0392
13.008
13.0933
13.3578
13.3718
13.0272
12.7946
1.04925
1.10861
1.13416
1.08004
1.06627
1.00063
0.865764
0.913995
0.940377
0.945789
0.93196
1.03018
1.06379
1.04436
1.04063
1.0428
1.04321
1.05336
1.01285
1.02499
1.02129
1.01898
0.998074
0.960998
0.978377
0.975604
1.01622
1.01411
1.07178
1.0866
1.07353
1.07121
1.07287
1.13676
1.13982
2.55807
11.0272
13.9264
14.2559
13.7884
13.2052
12.9799
12.9829
13.1064
13.3818
13.3946
13.0547
12.7983
0.931415
0.965847
0.966325
1.01091
1.01283
1.00824
0.996915
1.02909
1.06346
1.35201
1.29753
1.22388
1.15211
1.06607
1.06658
1.06346
1.07581
1.05228
1.04054
1.03874
1.047
1.05802
1.06283
1.07289
1.06314
1.0727
1.11193
1.08416
1.06719
1.06691
1.05134
1.06034
1.04732
1.00208
1.05282
2.55376
11.0915
13.318
14.0523
13.6104
13.099
12.8955
12.937
13.1256
13.3644
13.3336
12.9895
12.7309
1.01941
1.01736
1.03607
1.03096
1.02285
1.02255
1.0751
1.16219
1.11801
1.02826
1.07399
1.0914
1.07656
1.00503
0.995502
1.04106
1.07277
1.05053
1.05012
1.0378
1.06885
1.12508
1.18834
1.19178
1.18458
1.18855
1.17661
1.16686
1.10535
1.03397
1.05584
1.05758
1.06522
1.00218
1.18308
2.95897
10.923
13.0209
13.7987
13.313
12.9174
12.7851
12.9172
13.1771
13.3482
13.2617
12.9426
12.6978
1.00212
0.991209
0.991152
0.991693
0.992056
0.987213
0.989954
1.02018
1.04381
1.01708
1.02907
1.03582
1.02603
1.01192
1.01664
1.00368
0.99897
0.977133
1.00487
1.02205
1.02131
1.05695
1.0334
1.07069
1.08804
1.07921
1.08527
1.05947
1.0468
1.05147
1.01366
1.00242
1.04308
0.862141
1.51723
2.67679
10.2099
12.9922
13.7456
13.1827
12.7928
12.7647
12.9305
13.2113
13.2941
13.133
12.8681
12.7008
1.00224
1.0086
1.00507
0.970047
0.964006
1.04061
1.04365
1.04433
1.01701
1.02403
1.03198
1.0517
1.04984
1.08692
1.06164
1.032
0.989354
0.9355
0.997548
1.01211
0.998315
1.02093
1.04126
1.04226
1.02515
1.02643
1.00656
0.990031
1.03737
1.01748
1.01481
0.99709
1.0097
1.04771
1.0034
2.27058
10.0048
13.4719
13.6801
13.1078
12.7029
12.7535
12.971
13.1904
13.1974
12.9984
12.8063
12.7404
0.995097
0.994233
0.990062
1.00748
1.09079
1.07106
1.10249
1.05208
1.00787
1.02099
1.02125
1.03681
1.037
1.0742
1.06566
1.04474
1.05107
1.02173
1.03583
1.05062
1.06173
1.0938
1.06006
1.06246
1.06517
1.0636
1.07283
1.10118
1.05548
1.05162
1.00601
1.00624
0.98374
0.98247
0.69865
1.82574
9.26638
13.9634
13.7823
13.0219
12.6515
12.7686
13.0134
13.1118
13.067
12.9119
12.7508
12.7801
1.02068
1.01088
0.95134
0.988637
1.00908
1.01562
0.936388
0.988294
1.00568
1.02406
1.02465
1.03013
1.004
1.0114
1.01753
1.01393
1.07981
1.02783
1.04194
1.04172
1.06412
1.0363
1.03453
1.04562
1.05375
1.1081
1.07648
1.0707
1.07057
1.04511
0.997867
1.04251
1.05667
0.845643
0.797096
1.68709
8.73611
13.7216
13.5866
12.8365
12.5891
12.8067
13.0705
13.0244
12.9529
12.8567
12.6984
12.8085
0.988603
1.00311
1.15883
1.14067
1.10662
1.09645
1.01539
0.989123
0.975188
0.996481
1.01631
1.01854
0.964429
0.959429
0.930419
0.964164
1.01219
1.17554
1.09675
1.03816
1.00467
1.00228
1.00022
1.01372
1.02959
1.06682
1.05069
1.05179
1.05052
1.04922
1.01661
1.01953
1.02063
1.00678
0.976097
1.64164
8.07481
13.306
13.0017
12.564
12.5435
12.8738
13.1465
12.9831
12.8518
12.7788
12.6676
12.814
0.998207
0.97454
0.930906
0.902327
0.915106
0.865187
0.911967
0.909437
1.00877
1.00782
1.0294
1.02586
1.05103
1.04081
1.03316
1.03404
1.08487
1.17804
1.15062
1.15443
1.12089
1.02515
1.00592
1.0189
1.02652
1.02672
1.03749
1.03567
1.04482
1.05312
1.03086
1.02675
1.02638
0.984132
0.972714
1.45718
6.78803
12.6619
12.5536
12.4874
12.5911
13.0314
13.1989
12.9245
12.7347
12.6655
12.655
12.7796
0.998967
1.05723
1.06735
1.03106
0.98172
1.0304
1.01686
1.02187
0.995858
1.00086
0.995202
1.01427
1.01773
1.0216
1.01888
1.04063
1.09246
1.11834
1.06162
1.09495
1.09499
1.06261
1.03556
1.03639
1.02193
1.01227
1.01718
1.02364
1.02829
1.02206
1.04761
1.04538
1.04966
1.00942
0.973348
1.19896
4.11833
11.6825
12.6716
12.7557
12.8128
13.1436
13.1714
12.8247
12.6086
12.5545
12.6556
12.6957
1.00326
0.950472
0.854517
0.860046
0.86371
0.959978
0.970796
0.976626
0.966037
0.991394
0.999465
0.999567
1.00945
1.00956
1.03103
1.03508
0.919928
0.852954
0.802321
0.903087
1.05756
1.0504
1.03683
1.05
1.03356
1.02546
1.03678
1.0443
1.04455
1.07634
1.07148
1.07276
1.0592
1.08903
1.08812
1.10344
2.28554
9.53042
13.2839
13.1168
12.9185
13.0518
13.0231
12.7215
12.4813
12.4789
12.5882
12.6209
0.998729
1.0471
1.10812
1.10024
1.20072
1.09907
1.15853
1.16686
1.08037
1.03135
1.01848
1.02485
1.02406
1.05296
1.04383
1.04227
1.01167
1.02364
1.12429
1.09226
1.09628
1.06589
1.02369
1.03888
1.04103
1.01936
1.02803
1.02765
1.04416
1.04267
1.06383
1.06411
1.07634
1.08305
1.031
1.26242
1.58511
6.75443
12.9953
12.948
12.8024
12.7922
12.7638
12.5903
12.3585
12.3753
12.4387
12.4908
1.00019
0.962909
0.96569
0.987026
0.950399
0.980246
0.943323
0.923136
0.987614
0.986954
1.02061
1.03056
1.06962
1.06246
1.05278
1.06871
1.05853
1.09674
1.11893
1.11267
1.11685
1.11925
1.10635
1.07322
1.04062
1.01945
1.02626
1.02639
1.00965
1.04033
1.04811
1.06265
1.01792
1.03601
1.03823
1.0255
1.24066
3.642
11.1601
12.7335
12.576
12.4423
12.4828
12.4419
12.3102
12.2324
12.2169
12.1707
0.999476
1.02753
1.02416
1.01947
1.00422
0.991405
1.00232
1.0205
1.02108
1.02946
1.01974
1.01298
1.01912
1.01564
1.03488
1.0623
1.0428
1.02901
1.04437
1.06997
1.04738
1.10368
1.10883
1.05451
1.0545
1.02592
1.02646
1.00068
1.00162
1.00147
1.04351
1.04591
1.10822
1.10729
1.10609
1.04046
1.03833
2.01671
9.08452
12.3851
12.2998
12.1173
12.1487
12.1885
12.1382
11.965
11.7264
11.6837
0.999217
0.968884
0.9718
0.956245
0.920257
0.942801
0.94068
0.969185
0.998494
1.0359
1.09027
1.05951
1.02517
1.04947
1.06113
1.06738
1.05398
1.05284
0.994136
0.924212
0.97556
0.9495
0.955585
1.01092
1.04708
1.0091
0.992711
0.99438
0.977155
1.01382
1.01436
1.08853
1.15394
1.18883
1.14648
1.14942
1.0672
1.57229
6.7165
11.5276
12.1597
11.9657
11.8457
11.8613
11.8642
11.6313
11.2091
10.6548
0.996602
1.0611
1.05485
1.05635
1.09516
1.06828
1.04628
1.01739
1.04583
1.06216
1.03774
1.0445
1.06784
1.07967
1.07995
1.08728
1.05355
1.03769
1.02492
1.03414
1.0339
1.05054
1.07201
1.05457
1.04982
0.996012
0.996173
0.966903
0.973909
1.02136
1.03855
1.0321
1.13157
1.09851
1.12496
1.0606
0.973922
1.14047
3.4322
10.5155
11.9237
11.8303
11.6609
11.4725
11.4036
11.0138
9.99046
7.26794
1.00072
0.898693
0.951307
0.947852
1.01771
1.03636
1.02204
1.042
1.28841
1.25232
1.10262
1.04498
1.00517
1.03067
1.1032
1.0554
1.04134
1.03803
1.04553
1.07199
1.08453
1.0846
1.10284
1.10201
1.03699
1.00181
0.999827
1.00606
1.00553
1.01631
0.907036
0.929374
0.853407
0.932672
1.0379
1.05713
0.938489
0.910001
1.83578
8.18814
11.502
11.6162
11.3128
11.0242
10.8247
10.193
8.92629
6.48687
0.99517
1.0997
1.20942
1.1133
0.908523
0.948358
0.970395
0.905932
0.693693
0.708999
0.872686
0.9073
0.884375
0.933782
1.12552
1.07141
1.0561
1.04066
1.04975
1.07901
1.07254
1.13496
1.12715
1.13921
1.03161
1.00393
1.00573
1.00567
1.00537
1.01834
1.11514
1.13859
1.12254
1.13194
1.12498
1.16011
0.699203
0.583948
1.90174
3.92022
10.1818
11.1751
11.2154
10.9413
10.3327
9.45455
8.18296
5.9518
1.00267
0.979705
0.846746
0.936426
1.04994
1.03527
1.03419
1.09521
1.09067
1.11155
1.08774
1.00232
1.01527
1.01214
1.07545
1.05962
1.04792
1.05264
1.04986
0.999895
1.01786
1.0006
1.05128
1.05122
1.07479
1.04448
1.04094
1.0012
1.0352
1.03517
1.07326
1.08319
1.13829
1.10063
1.10019
1.0655
0.977563
0.953207
0.960558
1.89917
6.94855
10.4279
11.1664
10.6681
9.84634
8.92575
7.79013
6.44945
0.998212
0.997658
1.00192
0.994433
1.00443
1.0391
1.04357
1.08351
1.05647
1.07734
1.0841
1.04352
1.02661
1.03121
1.0213
1.0215
1.04809
1.04922
1.05372
1.05315
1.05375
1.04323
1.02145
1.03369
1.00933
1.02099
1.02475
1.02364
1.03119
1.05599
1.0674
1.0693
1.06156
1.06849
1.06613
1.06594
1.07826
1.09666
1.02971
1.24304
3.09702
8.83449
10.9046
10.3529
9.52902
8.60191
7.63266
6.72552
0.99687
0.99774
0.995388
1.02013
1.01993
1.06612
1.1037
1.23369
1.19368
1.06322
1.00456
0.987386
0.982591
1.04681
1.03662
1.03508
1.0395
1.02239
1.052
1.05759
1.06176
1.05028
1.03384
1.03959
1.04082
1.05412
1.0523
1.07367
1.08509
1.07537
1.08485
1.07249
1.07171
1.06186
1.06084
1.08479
1.08994
1.09381
0.981182
1.26065
1.61664
5.0723
9.84402
10.03
9.20598
8.43101
7.58788
6.76844
1.00313
0.988289
0.988502
0.986925
0.996065
0.732949
0.704928
0.616479
0.823712
1.03017
1.00793
1.0031
1.00531
1.01891
0.999769
1.00734
0.995579
1.02051
1.01978
1.06075
1.06774
1.04393
1.03709
1.02781
1.02961
1.02859
1.03409
1.02665
1.03684
1.07283
1.05476
1.05621
1.045
1.02691
1.03023
1.02997
1.05019
1.0764
1.06554
1.14044
1.17054
2.37185
6.86079
9.48019
8.98883
8.15054
7.37323
6.54419
0.995718
1.00844
0.998766
0.98465
0.990364
1.22631
1.21983
1.24258
1.07944
1.06179
1.05633
1.09099
1.08265
1.07153
0.935563
0.920152
0.937466
0.934243
1.02871
1.02706
1.05478
1.05376
1.05386
1.05436
1.05969
1.05718
1.05665
1.05272
1.04566
1.05651
1.04975
1.04693
1.04971
1.00449
1.03675
1.03737
1.08137
1.09441
1.09211
1.13652
1.11014
1.39653
3.42234
7.5159
8.56116
7.93835
7.30861
6.58732
1.001
1.0038
0.924234
0.918379
0.902734
1.01943
1.0617
1.05609
1.05162
1.00896
0.991823
0.998409
1.00959
1.00727
1.14434
1.08547
1.08823
1.02537
1.0172
1.02553
1.05253
1.06162
1.06885
1.06295
1.06105
1.04743
1.04618
1.04529
1.03764
1.03809
1.01768
1.02837
1.0282
1.05191
1.05176
1.08006
1.07929
1.11102
1.14373
1.17861
1.15012
1.22941
1.37222
4.48643
7.94721
7.63554
7.20669
6.5254
0.985133
0.982851
1.21402
1.21308
1.39025
1.20749
1.18366
1.07934
1.07895
0.961628
0.847757
0.891032
0.85908
1.01963
1.05219
1.04592
1.10611
1.06902
1.04724
1.0052
1.04763
1.04934
1.0446
1.08525
1.06538
1.05724
1.04764
1.04046
1.04051
1.02856
1.02373
0.968678
1.0083
1.03941
1.03928
1.1383
1.10479
1.10273
1.06938
1.09272
1.14818
0.913513
0.882862
2.15896
5.89933
7.32447
7.35701
6.61287
1.01121
1.00882
0.946592
0.970405
0.868697
0.922626
0.926512
1.04969
1.04121
1.04572
1.0745
1.053
1.08343
1.01337
1.01441
1.01839
0.931484
1.01118
1.02367
1.02146
1.00803
1.03974
1.05633
1.1356
1.07306
1.06153
1.03247
1.03455
1.01547
1.02258
1.02255
1.02337
1.03023
0.998892
1.00333
0.995472
1.05735
1.05877
1.08313
1.127
1.17012
0.690322
0.618875
1.68832
2.85493
5.30208
6.1356
6.03102
0.999943
0.996788
0.997513
0.992733
0.966043
0.976165
0.976795
0.972144
0.986873
1.05982
1.14357
1.14461
1.02554
1.06153
1.07516
1.07713
1.11594
1.10523
1.09019
1.05144
1.05473
1.05503
1.07747
1.07828
1.1155
1.09515
1.13305
1.11289
1.12817
1.06815
1.05237
1.0365
1.03969
1.02226
1.03607
1.03478
1.04197
1.05169
1.05109
1.07098
1.09258
0.987729
0.956523
1.10412
1.32683
2.50416
5.55286
6.25237
0.994576
1.02386
1.02536
1.0119
1.06839
1.05288
1.04831
0.972391
0.979424
1.0304
1.03917
1.09602
1.03156
1.03201
1.00735
1.03593
1.05648
1.08376
1.07317
1.06727
1.05837
1.05322
1.05923
1.07717
1.07386
1.07013
1.05413
1.04823
1.06642
1.05337
1.0449
1.06299
1.0514
1.04779
1.0479
1.04222
1.04107
1.03416
1.03899
1.03904
1.04872
1.07271
1.06036
1.0536
1.05342
1.12142
3.0727
4.85956
1.00106
0.985069
0.760743
0.788441
0.759752
0.943181
0.962528
0.959449
0.964845
0.964696
1.0145
1.09215
1.09602
1.06764
1.04987
1.02902
1.05188
1.05432
1.05113
1.05104
1.04635
1.04181
1.05442
1.06359
1.07437
1.02483
0.995149
0.962839
1.00677
1.05189
1.06431
1.06581
1.05202
1.04967
1.04842
1.04945
1.04969
1.04552
1.03036
1.03142
1.03059
1.03793
1.04123
1.06316
1.02269
0.919546
1.6161
2.33317
0.999348
1.00433
1.2831
1.29534
1.33744
1.10448
1.05348
1.06255
1.02501
1.07511
1.1402
1.11571
1.11
1.1101
1.04804
1.03456
1.04314
1.063
1.06216
1.06689
1.03592
1.01459
1.00466
1.01732
1.06855
1.08426
1.07876
1.0864
1.05623
1.09822
1.09574
1.06636
1.04952
1.04758
1.04998
1.0515
1.05891
1.04644
1.05072
1.03665
1.03429
1.03248
1.05571
1.05599
1.05327
1.03949
1.13339
1.15794
1.00181
1.00248
1.03405
1.02865
0.909992
0.966454
1.03947
1.27144
1.29855
1.2581
1.22212
1.01158
1.03115
1.02312
1.02496
1.04778
1.04844
1.09414
1.05168
1.02828
1.02548
0.980421
0.980634
0.950837
1.00341
1.01851
1.03039
1.0622
1.07458
1.05761
1.08066
1.09587
1.08143
1.08245
1.07354
1.0717
1.07196
1.05141
1.04759
1.02329
1.01948
1.00874
1.02982
1.03743
1.03792
1.08117
1.08928
1.02633
0.994156
1.06499
1.09633
1.04142
1.09693
1.05087
1.02778
1.05347
1.0609
1.08516
1.0801
0.958688
0.942924
0.937131
0.99368
0.993117
1.14039
1.01807
1.00184
0.974829
0.971288
0.942939
0.960574
0.960489
1.00246
1.01748
1.01661
1.04647
1.04716
1.05691
0.999572
0.999547
1.05574
1.07893
1.10197
1.10618
1.09107
1.09141
1.05034
1.04918
1.02535
1.03226
1.03305
1.06087
1.06478
1.07302
1.07866
1.06466
0.996206
0.835928
0.850666
0.903384
0.901408
0.941731
0.93716
0.975321
0.980883
0.986569
0.99024
1.10042
1.03377
1.03147
1.02344
1.04262
1.0235
1.01584
0.998319
0.997925
0.958177
0.968262
0.968667
1.01233
1.01253
1.06371
1.07763
1.07963
1.09143
1.06622
1.09296
1.09589
1.09112
1.11789
1.1248
1.1269
1.13194
1.10297
1.1023
1.0662
1.06631
1.05776
1.06097
1.06554
1.07499
1.07286
1.07205
1.06481
0.998836
1.08515
1.06701
1.05896
0.990971
1.00067
1.01591
1.0253
1.01942
1.01777
1.02075
1.02757
1.05753
1.04104
1.03991
1.02393
1.0253
1.01033
1.0454
1.04831
1.04998
1.04833
1.04529
1.0488
1.05367
1.04801
1.07886
1.08734
1.06777
1.07522
1.07576
1.08421
1.08404
1.12043
1.12294
1.14466
1.14224
1.14224
1.11637
1.1163
1.09917
1.10111
1.08864
1.0889
1.07573
1.07561
1.06193
1.06181
0.999585
0.992049
1.15416
1.19697
1.16271
1.10044
1.1001
0.995851
0.986195
1.01101
1.02435
1.03093
1.0255
1.06405
1.03885
1.03543
1.00985
1.06382
1.06669
1.10097
1.09684
1.10701
1.08537
1.08234
1.0757
1.05647
1.07741
1.08778
1.08637
1.09601
1.09901
1.08733
1.11605
1.11737
1.13709
1.13817
1.14838
1.14351
1.14343
1.13122
1.13128
1.12072
1.12222
1.09949
1.09324
1.07684
1.07195
1.06582
1.00774
1.01454
0.658182
0.614239
0.869669
0.86439
0.917837
0.95852
0.95827
1.03268
1.06942
1.07617
1.02687
1.05055
1.0636
1.00186
1.04451
1.06155
1.11099
1.12986
1.13701
1.13577
1.13593
1.08768
1.07169
1.07824
1.08289
1.05581
1.07695
1.07715
1.09856
1.09842
1.11694
1.12052
1.12692
1.13313
1.13009
1.13231
1.1336
1.13361
1.13825
1.13903
1.12554
1.10869
1.09624
1.09885
1.07087
1.06834
0.998624
0.995856
1.15591
1.34937
1.22748
1.22607
1.00152
0.9902
0.999921
1.03323
1.11495
1.10886
1.14295
1.09679
1.05939
1.05131
1.03254
1.08474
1.09333
1.09138
1.10169
1.11906
1.10597
1.101
1.08994
1.08268
1.06052
1.06483
1.0429
1.06278
1.07277
1.08275
1.08036
1.12765
1.10399
1.09445
1.09422
1.07516
1.09
1.08997
1.13695
1.14152
1.13028
1.12814
1.1398
1.11381
1.11261
1.07685
1.0011
0.99245
1.01569
1.02347
0.958121
0.974734
1.01324
1.10277
1.14292
1.13943
1.04644
1.0957
1.10404
1.11324
1.07938
1.07653
1.08401
1.07531
1.07614
1.08397
1.07827
1.07859
1.07955
1.07627
1.07727
1.0347
1.04349
1.04386
1.06151
1.06206
1.08708
1.10285
1.09563
1.10939
1.07221
1.0491
1.03537
1.04179
1.04209
1.07089
1.06911
1.11121
1.1245
1.1186
1.11246
1.13532
1.11057
1.11046
1.00122
1.01402
1.01494
0.932347
0.952968
0.933988
0.994416
1.03699
1.08805
1.09059
1.04113
1.09132
1.11049
1.11901
1.08191
1.04516
1.04271
1.04727
1.15481
1.08399
1.07834
1.06978
1.02662
1.0161
1.01253
1.01054
1.0099
1.04503
1.04724
1.10224
1.10389
1.11732
1.10638
1.09591
1.04592
1.01886
0.992835
0.983382
1.01604
1.01665
1.06455
1.06679
1.11433
1.11488
1.14772
1.15367
1.15142
1.11811
0.99974
0.985365
1.01272
1.06626
1.03266
1.11081
1.05884
1.03971
1.03075
1.05709
1.07384
1.0914
1.09002
1.07757
1.06649
0.902905
0.948244
1.0397
1.04297
1.10352
1.11168
1.03187
1.00503
0.984812
0.991495
0.990584
1.03082
1.03165
1.09139
1.0954
1.12438
1.11285
1.1319
1.08042
1.05585
1.01461
0.98688
0.969544
0.983878
1.01287
1.01097
1.08115
1.09016
1.15976
1.16064
1.17641
1.15854
1.15886
1.00272
0.997448
0.883701
0.972365
0.975359
0.945073
0.967108
0.982131
1.02139
1.02424
1.03994
1.01349
1.00717
1.01504
1.0089
1.0482
1.04545
1.0444
1.0526
1.09143
1.04741
1.02458
0.985701
0.97763
0.966884
0.977133
0.975545
1.02952
1.0308
1.09547
1.09301
1.14256
1.1152
1.10308
1.04815
1.04586
0.972352
0.960259
0.995272
1.00167
0.988744
1.06333
1.06495
1.12626
1.12697
1.16259
1.16384
1.12927
0.997042
1.02112
1.17705
1.11905
1.12278
1.02531
1.02714
1.02025
1.02996
1.01691
1.01577
0.996663
0.994355
1.00041
1.05935
1.05577
1.03789
1.03448
1.01223
1.01871
1.02309
1.0193
1.01768
0.998879
0.99794
0.996541
1.00901
0.998486
1.02924
1.02789
1.16375
1.13559
1.13629
1.09152
1.09057
1.03431
1.03277
0.983463
1.01208
1.01729
0.972847
1.04661
1.07195
1.07246
1.12037
1.11608
1.10447
1.10978
1.00244
0.961327
0.92295
0.950853
0.955268
0.991626
1.0003
0.997874
1.01604
1.01955
1.01492
1.0361
1.03714
1.03339
1.04772
1.01712
1.01141
1.02283
1.00699
1.011
1.0119
1.03492
1.0417
0.993093
1.01618
1.02258
1.02188
1.05468
1.07395
1.0931
1.08886
1.12767
1.13728
1.11962
1.08825
1.08695
1.04249
1.02836
1.02926
1.03371
1.0111
1.04064
1.04042
1.09348
1.09391
1.12502
1.15663
1.15861
0.997319
1.03374
1.06228
1.03219
1.03325
1.04296
1.04007
1.00055
0.953413
0.972612
0.965564
1.01531
1.03012
1.00588
0.99349
1.00744
1.01244
1.08135
1.07862
1.06147
1.06798
1.06843
1.07758
1.08419
1.06754
1.06853
1.0778
1.089
1.08875
1.08205
1.08691
1.09004
1.1616
1.12094
1.11392
1.07553
1.07495
1.057
1.05892
1.0345
1.02401
1.02315
1.06135
1.06585
1.07936
1.082
1.11724
1.13455
1.00092
0.982715
0.93804
0.958907
0.959058
1.03159
1.08187
1.02896
1.02963
1.02032
1.00605
1.03798
1.03965
1.00413
1.05009
1.04825
1.07225
1.07075
1.07422
1.06464
1.06006
1.05745
1.08085
1.17609
1.1552
1.13387
1.11749
1.08196
1.05375
1.07868
1.07891
1.0991
1.11448
1.13622
1.10591
1.10495
1.07934
1.07894
1.04751
1.03824
1.00401
1.01123
1.00928
1.07025
1.08675
1.10753
1.09913
1.13187
0.990882
0.991964
0.990972
0.994496
0.962549
0.945102
0.989904
1.01119
1.12901
1.10795
1.08079
1.09604
1.03626
1.04305
1.04097
1.07212
1.09397
1.0337
1.03621
0.98665
0.986242
0.986883
1.01646
1.11832
1.10291
1.09354
1.10252
1.06433
1.0574
1.06121
1.06669
1.07058
1.09122
1.10105
1.09206
1.09351
1.10445
1.07003
1.05127
1.03384
1.03375
0.980612
1.01437
1.01335
1.11116
1.12934
1.13058
1.16105
1.00703
1.00545
1.00572
0.964732
0.927167
0.895604
0.897526
0.911039
0.984265
1.10483
1.05406
0.982812
0.988744
0.965529
1.00119
1.02634
1.02496
1.06658
1.0665
1.15489
1.16341
1.16151
1.13936
1.08675
1.0806
1.07251
1.05381
1.05704
1.04955
1.05324
1.09713
1.07157
1.09797
1.11502
1.11893
1.11881
1.12632
1.08182
1.08056
1.03327
1.04488
1.04663
0.999476
1.04025
1.07087
1.10938
1.11131
1.13441
0.989859
0.988163
0.990553
1.03842
1.11684
1.20959
1.1843
1.11817
1.06419
1.06859
1.0965
1.08317
1.03746
0.991171
0.961819
0.963608
1.01234
1.04938
1.08374
1.08994
1.07464
1.08892
1.08899
1.09773
1.08974
1.0969
1.0762
1.07602
1.03945
1.03339
0.992332
1.05507
1.05509
1.08626
1.08989
1.15296
1.12683
1.12856
1.08951
1.08031
1.0694
1.06621
1.12527
1.13945
1.12331
1.08216
1.10984
1.15018
1.00683
0.98915
0.987405
0.998091
1.02961
1.12007
1.15157
1.14427
1.07701
1.0353
1.0648
1.05816
1.0599
0.985598
1.01874
1.04292
1.0966
1.09457
1.09275
1.06541
1.0551
1.07151
1.07833
1.09873
1.08011
1.07695
1.06801
1.06875
1.02042
1.02035
0.981654
0.974711
1.04061
1.05436
1.11214
1.14406
1.14897
1.14446
1.11741
1.10395
1.11023
1.10358
1.13459
1.1123
1.11665
1.10691
1.10747
1.07054
0.995748
0.998625
0.989766
1.04055
1.04091
1.11118
1.10359
1.27281
1.22794
1.21686
0.988476
0.981276
0.979683
1.03828
1.04652
1.1326
1.11042
1.07701
1.02078
0.998451
1.01854
1.07736
1.09183
1.06782
1.04938
1.03972
1.03505
1.04276
1.03186
1.04367
1.05769
1.07986
1.07066
1.08076
1.09973
1.11546
1.12902
1.11347
1.13203
1.14572
1.14891
1.13677
1.14371
1.09956
1.07196
1.06911
1.07792
1.09842
0.999682
0.981949
0.97136
0.937701
0.976325
0.97708
1.00523
0.930375
0.957033
0.955168
1.02125
1.02158
1.06463
1.087
1.06078
1.04987
1.04935
1.03854
1.03849
1.00557
1.02307
1.00329
0.998603
1.0296
0.998894
0.99159
1.00323
1.01103
1.02671
1.03081
1.05582
1.06326
1.03979
1.07764
1.08619
1.07623
1.10764
1.11627
1.11667
1.09963
1.09815
1.08778
1.08482
1.08945
1.08772
1.0922
1.0924
1.1112
0.998025
1.05455
1.08501
1.04222
1.03005
0.997505
1.07915
1.05042
1.07536
1.04084
1.07295
1.06256
1.06026
1.07873
1.05438
1.04327
1.02971
1.07401
1.07911
1.0686
1.04188
1.01551
0.991151
0.955703
0.960844
0.962072
0.956809
1.01532
1.01987
1.06891
1.07156
1.07517
1.06202
1.07102
1.07082
1.07905
1.07932
1.12265
1.09182
1.08223
1.06905
1.05186
1.06811
1.07562
1.09446
1.09418
1.112
1.11596
1.00039
0.942352
0.959859
0.975536
0.964253
0.983067
0.919137
0.948201
0.920436
0.958244
0.961667
0.974361
0.987709
1.06471
1.03133
1.01475
1.01608
1.00274
1.00805
1.04069
1.11882
1.09351
1.0938
1.00404
0.984081
0.954314
1.01408
1.01368
1.06987
1.07066
1.10827
1.09443
1.0872
1.06108
1.06347
1.0613
1.0678
1.06671
1.08625
1.10793
1.08939
1.11454
1.12357
1.09854
1.12792
1.14596
1.14429
1.13342
0.9972
1.04244
1.02499
1.02364
0.991386
0.983109
0.988105
0.978134
0.982183
0.992253
1.02097
1.00809
1.00006
1.05328
1.02954
1.02494
0.990469
0.994924
0.994259
1.05282
1.05327
1.10109
1.09457
1.1053
1.05425
1.09983
1.07766
1.07972
1.06856
1.07795
1.07885
1.08683
1.05772
1.05638
1.03544
1.04372
1.05562
1.0605
1.04317
1.06475
1.07398
1.0982
1.08814
1.06537
1.0948
1.08419
1.08398
1.08154
1.0071
0.999644
1.01136
1.01242
1.03022
0.956519
1.01454
1.01636
1.01792
0.998006
1.00431
1.01392
1.04979
1.06286
1.07024
1.03142
1.00955
0.994924
1.01012
0.980104
1.04276
1.05589
1.04995
0.964284
1.05355
1.11209
1.16108
1.09582
1.08733
1.05432
1.05453
1.0251
1.02505
0.996166
0.991061
1.03146
1.04273
1.04298
1.05029
1.05112
1.06419
0.981973
0.980971
0.973295
1.08048
1.07346
1.06729
1.0687
0.993081
0.975471
1.0591
1.05413
1.33416
1.74393
1.34899
1.22974
1.0272
1.00339
1.01043
1.02315
1.02836
1.09654
1.06592
1.06194
1.04482
1.04458
0.965696
1.02785
1.04049
1.07107
1.06709
1.05263
1.1283
1.08708
1.0704
1.11913
1.03511
1.02199
0.997383
0.996952
0.989738
0.997239
1.00242
1.00916
0.99173
1.02523
1.03563
1.06192
1.06273
1.11444
1.06668
1.05782
1.05029
1.0528
1.05025
1.05721
1.02624
1.03987
0.844659
0.80963
0.53039
0.567283
0.836591
0.991486
1.03981
1.04195
1.0549
1.04181
1.05234
1.07329
1.07832
1.06517
1.06366
1.04335
1.01639
1.03208
1.07698
1.11842
1.11018
1.09908
1.09776
1.07139
1.07002
1.04248
1.0427
1.0041
1.00327
0.979566
0.989289
0.987932
0.950347
0.9919
0.99431
1.03511
1.03858
1.0599
1.06349
1.05587
1.05357
1.04333
1.03913
1.04727
1.04904
1.04777
1.0006
0.973182
1.04145
1.15118
1.34515
1.14129
1.07816
1.06342
1.1391
1.11316
1.13554
1.05742
1.06254
1.07565
1.05844
1.07695
1.08012
1.08096
1.13818
1.21649
1.16185
1.14541
1.15506
1.08578
1.08031
1.06942
1.07074
1.03777
1.04164
1.05634
1.04804
1.048
1.01669
0.986833
1.00494
1.00344
1.01661
1.06155
1.06077
1.0664
1.04979
1.04263
0.999834
0.997013
1.01078
1.0401
1.0471
1.05005
0.998577
1.02298
1.05192
1.07501
0.98472
0.998775
0.996469
0.994197
0.980417
1.06306
1.05153
1.05455
1.01906
1.02912
1.02911
1.07967
1.08064
1.08594
1.07783
1.0712
1.06854
1.10034
1.04963
1.04385
1.05807
1.05159
1.02889
1.0341
1.03609
1.05368
1.04926
1.03856
1.03742
1.01089
1.00749
1.0232
1.02833
1.0091
1.0177
1.02691
1.04252
1.07109
1.13603
1.14312
1.10428
1.06296
1.05859
1.06715
0.989626
0.989039
1.2399
1.11014
1.00436
1.01345
1.01732
1.00791
1.02815
1.03288
1.02297
1.02578
1.00468
1.05567
1.05563
1.08049
1.09068
1.09108
1.09008
1.08127
1.05446
1.07371
1.07347
1.11582
1.08965
1.06998
1.05971
1.04218
1.04982
1.05342
1.05264
1.03643
1.03588
1.0367
1.04546
1.07099
1.05633
1.05976
1.06591
1.06447
1.06204
1.0579
1.05325
1.05492
1.05679
1.04117
1.04682
1.07709
1.01042
1.00828
0.642928
0.805488
0.670732
0.839818
0.83567
0.91746
0.966601
0.974175
0.974416
0.976921
0.970555
0.979908
1.0633
1.0784
1.05844
1.05784
1.06822
1.08971
1.09246
1.11666
1.10803
1.10602
1.12855
1.10423
1.09557
1.09015
1.09289
1.08959
1.07951
1.10281
1.1033
1.09221
1.08054
1.08096
1.06493
1.06038
1.06344
1.05846
1.06416
1.06676
1.06839
1.03895
0.995765
0.999304
0.990449
0.979752
0.999523
1.00301
1.19378
1.10955
1.3133
1.17421
1.16641
1.04321
1.01252
1.0015
1.0074
1.06356
1.04178
1.02818
1.06373
1.07954
1.08065
1.00072
1.05635
1.0625
1.10086
1.09922
1.12259
1.11609
1.11748
1.11624
1.12575
1.13517
1.13851
1.10983
1.04099
1.07351
1.08371
1.07885
1.08556
1.06006
1.05427
1.06609
1.05913
1.05821
1.06977
1.09267
1.09321
1.10571
1.0731
1.07326
1.04588
1.04541
0.984484
0.962141
1.01823
1.03147
1.02713
1.04022
1.04653
1.03348
0.998792
1.0059
1.03774
1.09722
1.07972
1.0876
1.06358
1.05909
1.05865
1.06247
1.06486
1.06336
1.06153
1.07546
1.0775
1.05234
1.08799
1.11131
1.11271
1.13331
1.13057
1.12961
1.08284
1.08728
1.08073
1.07773
1.08764
1.07788
1.07757
1.05437
1.04933
1.05418
1.1671
1.13567
1.22004
1.16924
1.14514
1.13043
1.12587
1.08788
1.06511
1.21254
1.08411
1.07317
1.06217
1.0675
1.06225
1.04318
1.04398
0.971687
0.934404
0.949146
0.98671
0.953824
0.979989
1.02121
1.06869
1.11167
1.03285
1.01267
1.01198
0.988436
0.944336
1.0121
1.03263
1.07511
1.1113
1.11184
1.10799
1.07195
1.07496
1.0539
1.05131
1.05159
1.04876
1.14369
1.09796
1.0592
1.07787
1.08531
0.932003
0.98118
0.914663
0.93758
1.03786
1.12909
1.10658
1.09397
0.900975
0.830339
0.923673
0.922775
1.07768
1.05506
1.04386
1.04379
1.01907
0.935919
0.841086
0.855823
0.925349
0.920904
0.959668
1.11993
1.07056
1.05613
1.01519
1.01561
0.953689
0.93361
0.920344
0.945083
1.03453
1.05656
1.13111
1.15272
1.17317
1.09339
1.08654
1.05355
1.04907
1.00669
1.01368
0.988597
1.0239
1.02347
1.0724
1.0771
1.06162
1.06787
1.04618
1.1204
1.127
1.12635
1.11855
1.04547
1.03275
1.02327
1.02616
1.02686
1.18061
1.09078
1.05566
1.05547
1.04171
1.17957
1.53367
1.39
1.32467
1.03622
1.08706
1.07139
1.09014
1.04263
1.0264
0.991816
0.957935
0.957954
0.912257
0.980527
0.977132
1.05712
1.08969
1.11924
1.10446
1.11732
1.05919
1.03528
1.02004
0.998538
1.03961
1.05184
1.06339
1.06452
1.06918
1.06752
1.18516
1.21971
1.26474
1.24478
1.24912
1.1114
1.10968
1.13137
1.00169
0.994973
0.986031
0.987754
0.832471
0.926539
0.951311
0.996508
0.996348
1.0766
1.01556
1.00736
0.92492
0.95675
0.928819
0.986346
1.10426
1.05782
1.05767
1.0128
1.01219
0.987079
0.986545
0.809647
0.97681
1.00567
1.03247
1.01797
1.04348
1.07918
1.01624
1.0031
0.99714
1.16976
1.17604
1.15865
1.09796
1.08823
1.07032
1.07784
0.967888
1.00455
1.00609
1.17943
1.1345
1.13517
1.09816
1.09129
1.00136
1.00623
1.00979
1.01416
0.95914
0.966941
1.00182
1.04545
1.02834
1.02272
1.04724
1.03231
1.05902
1.05931
1.06961
1.05203
1.12165
1.08796
1.06468
1.0524
1.04038
1.04204
0.967394
1.06569
1.06738
1.0242
1.1003
1.08494
1.09144
1.10249
1.07869
1.03349
1.00893
0.943951
0.879816
0.93911
1.01231
1.03694
1.03892
1.02488
1.04401
1.04491
1.07717
1.1375
1.09328
1.07376
1.07423
1.04894
0.995527
0.992949
1.00644
1.01788
1.00141
1.01073
1.01646
1.00156
1.01093
1.00053
0.93046
0.966493
0.958616
1.01714
1.03817
1.05231
1.1058
1.0884
1.08624
1.06414
1.06433
1.06091
1.06397
1.05837
1.05216
1.11728
1.11979
1.14342
1.10663
1.1015
1.10437
1.03584
1.02471
1.01992
1.04136
1.03521
1.04558
1.0475
1.05449
1.03207
1.0573
1.06496
1.06528
1.06547
1.06613
1.08648
1.07721
1.07071
1.00123
1.00512
1.00398
0.9994
1.01814
1.03766
1.04455
1.04012
1.01864
1.06443
1.11411
1.08203
1.11326
1.09218
1.07307
1.06301
1.06617
1.05841
1.05629
1.07821
1.07909
1.08003
1.07498
1.17352
1.14335
1.13666
1.10517
1.05219
1.01698
0.986375
1.00567
1.0194
1.02539
1.0372
1.03034
1.03933
1.04113
1.01768
1.04135
1.04682
1.02028
1.09337
1.08215
1.07025
1.07066
1.08183
1.08239
1.0575
0.990528
0.984658
0.990633
0.992199
0.991598
1.02495
1.03765
1.04175
1.03235
1.05203
1.06077
1.06249
1.03319
1.0322
1.02664
1.07101
1.09387
1.07627
1.08675
1.096
1.10354
1.09806
1.18133
1.1544
1.15396
1.11652
1.10651
1.02832
0.979436
0.971715
0.986688
1.01449
1.04821
1.03931
1.03077
1.03345
1.03348
1.04246
1.04287
1.06164
1.23365
1.19836
1.19539
1.1316
1.06417
1.07057
1.0728
1.07357
1.02595
1.07928
1.04926
1.01698
0.998032
0.996415
1.02425
1.06103
1.09081
1.08279
1.07569
1.06687
0.995045
1.00345
1.02416
1.03448
1.11506
1.05945
1.0244
1.05306
1.0536
1.09209
1.11526
1.10351
1.08672
1.0859
1.07063
0.950515
0.910933
0.90485
1.05873
1.03071
1.01888
1.04016
1.03891
1.03884
1.04686
1.04826
1.06293
1.04886
1.0605
1.07971
1.07647
1.05307
1.04861
1.07646
1.05947
1.0451
0.965505
0.921858
0.940871
0.951276
0.950525
0.997777
0.999531
1.11794
1.19986
1.22082
1.16668
1.14392
0.969471
1.04605
1.06189
0.976525
0.825456
0.854568
0.843618
0.933602
0.943662
1.01219
1.01835
1.01356
1.01206
1.01276
1.01083
1.05007
1.02389
1.02661
1.01364
1.0137
1.01698
1.04275
1.04598
1.04428
1.0553
1.03217
1.04079
1.04003
1.07242
1.11004
1.14727
1.12356
1.11988
1.12099
1.09161
1.08417
1.03193
1.02478
1.02978
1.02827
0.989184
0.953074
0.986097
1.02655
1.05738
1.10194
1.07783
1.08167
1.1016
1.07903
1.09156
1.04157
1.02745
1.03533
1.01234
1.05144
1.06279
1.0769
1.07444
1.06831
1.03131
1.01821
1.01256
1.03005
1.0721
1.05792
1.02194
1.02801
1.03187
1.05122
1.05162
1.0791
1.07774
1.09785
1.07967
1.07331
1.07459
1.12466
1.14379
1.14912
1.13172
1.13041
1.10748
1.1066
0.998077
0.993763
1.00271
1.00321
0.92275
0.965876
0.959357
0.989753
0.993248
1.00824
1.00406
1.1525
1.14284
1.14253
1.12371
1.21966
1.31273
1.30834
1.23676