/*--------------------------------*- C++ -*----------------------------------*\
| =========                 |                                                 |
| \\      /  F ield         | OpenFOAM: The Open Source CFD Toolbox           |
|  \\    /   O peration     | Version:  v1912                                 |
|   \\  /    A nd           | Website:  www.openfoam.com                      |
|    \\/     M anipulation  |                                                 |
\*---------------------------------------------------------------------------*/
FoamFile
{
    version     2.0;
    format      ascii;
    class       surfaceScalarField;
    location    "0.2";
    object      phi;
}
// * * * * * * * * * * * * * * * * * * * * * * * * * * * * * * * * * * * * * //

dimensions      [1 0 -1 0 0 0 0];
oriented        oriented;


internalField   nonuniform List<scalar> 
31936
(
0.00524928
1.57256e-06
0.00525412
-3.16637e-06
0.00521311
-6.66141e-06
0.00523857
-0.000117943
0.00523941
-0.000123954
0.00495621
4.87134e-05
0.00495357
2.02238e-05
0.00502128
3.34062e-05
0.00511779
0.000137189
0.0052846
-2.82592e-05
0.00528796
-2.91436e-05
0.00527278
-4.94856e-05
0.00520532
3.79776e-07
0.00512105
-9.05565e-07
0.00509718
-2.26648e-05
0.00512688
-5.86453e-05
0.00523582
-7.385e-05
0.00537689
-5.30089e-05
0.00547773
-3.90288e-05
0.00548101
-1.64848e-05
0.00550676
2.14489e-05
0.00529519
6.1785e-05
0.00493515
9.79057e-05
0.0046732
5.04063e-05
0.00449859
-1.40194e-05
0.00448973
-4.55949e-05
0.00460702
-4.24059e-05
0.00483306
-0.000107088
0.00504422
-7.58783e-05
0.00520685
-4.76978e-05
0.00533833
-3.31899e-05
0.00542548
-2.80436e-05
0.00546345
-2.17242e-05
0.00549095
-3.52662e-05
0.00539789
-8.46831e-06
0.00439107
-1.0235e-05
0.00299632
0.000449214
0.00338973
-0.000259453
0.00306711
0.00011173
0.00222151
0.000533552
0.00166084
0.000598808
0.00158844
0.000474837
0.00158856
0.000370882
0.0014861
0.000247151
0.00119042
0.00019667
0.000710675
0.000157328
0.000230707
0.000118576
0.000121511
0.0052378
1.33819e-06
0.0052348
-1.76899e-05
0.00526419
-2.11491e-05
0.00520794
-2.84678e-05
0.00519237
-7.99128e-06
0.00541683
4.90217e-05
0.00553223
5.31217e-05
0.00570047
7.60175e-05
0.00575451
7.85364e-05
0.0056403
7.22445e-05
0.00546684
5.11507e-05
0.00542899
-3.83368e-05
0.00538937
-4.81673e-05
0.00537242
-2.05346e-05
0.00532478
-2.18974e-05
0.00531331
-5.55149e-05
0.00530242
-8.26955e-05
0.00536413
-4.47422e-05
0.00552737
-3.58603e-05
0.00566838
-5.45377e-05
0.00567176
2.45401e-05
0.00568112
5.38424e-05
0.00574906
7.42735e-05
0.00578342
5.28507e-05
0.00574499
3.44022e-05
0.005671
-9.70584e-06
0.00565955
-4.96356e-05
0.00561583
-6.82748e-05
0.00555683
-4.59932e-05
0.00550132
-3.10931e-05
0.00541733
1.13551e-05
0.00538944
-1.69851e-05
0.00536913
-1.73185e-05
0.00528409
1.01902e-05
0.00512336
6.3419e-06
0.00414736
-0.000150325
0.00317947
0.000528869
0.00315006
-4.06829e-05
0.00275372
0.000414539
0.00208123
0.000974691
0.00177664
0.00096704
0.00174029
0.000873532
0.0017363
0.000743087
0.00155156
0.000578301
0.00117042
0.000493166
0.000659009
0.000395751
0.000165137
0.000312475
0.000232697
0.00523549
2.01941e-06
0.00520611
4.7314e-08
0.00520301
7.66605e-06
0.00523034
-1.38796e-05
0.00531208
2.27816e-05
0.00536388
1.90123e-05
0.00535005
3.26425e-06
0.0052284
-1.51766e-05
0.00506714
1.81577e-05
0.00506079
2.76825e-06
0.00521339
7.85359e-05
0.0054046
-1.23562e-05
0.00555967
1.45151e-06
0.00553699
2.92776e-06
0.00551016
1.40169e-05
0.0054752
-3.43593e-05
0.0053776
-2.56847e-05
0.00531718
-2.81101e-05
0.00523209
5.35775e-06
0.00513965
4.45317e-06
0.00513307
1.56793e-05
0.00524539
1.98518e-05
0.00553599
-2.35658e-05
0.00577902
2.22908e-05
0.00591653
3.6106e-05
0.00596884
-8.86826e-05
0.00583793
3.26649e-05
0.00563947
3.94224e-05
0.00547043
5.21533e-05
0.00539512
4.4612e-05
0.0053911
4.40246e-05
0.00538482
2.70269e-05
0.00538176
5.8519e-06
0.00534567
5.23572e-05
0.00527532
-8.55938e-06
0.00407949
-0.000218343
0.00269317
0.000838317
0.00270572
9.12858e-05
0.00243481
0.000769113
0.00191212
0.00128964
0.00175569
0.00125266
0.00176723
0.001174
0.00176506
0.00108213
0.00153071
0.000949458
0.00112746
0.000817161
0.000658216
0.000647355
0.000178459
0.000560021
0.000409552
0.00522405
1.73822e-05
0.00523859
-1.24339e-05
0.0052352
2.70593e-06
0.0052179
-1.05896e-05
0.00524058
1.47036e-05
0.0052075
3.19707e-05
0.00515944
4.91561e-05
0.00503775
5.54579e-06
0.00492532
3.53825e-05
0.00485401
7.75526e-05
0.0050458
6.75913e-05
0.00523122
3.54631e-05
0.00532991
1.36074e-05
0.00538859
-2.72565e-05
0.00539222
-8.96216e-06
0.00534145
-9.96676e-06
0.00524279
2.34737e-05
0.00507168
2.87019e-05
0.00491134
2.99239e-05
0.00475607
1.19482e-05
0.00464841
-2.84527e-05
0.00460376
-3.59271e-05
0.00472268
-1.22048e-05
0.00478633
5.2492e-05
0.00492828
3.30961e-05
0.00498028
7.85832e-06
0.00484309
9.741e-05
0.00478384
7.00947e-05
0.00478476
7.55434e-06
0.00496487
-1.64084e-05
0.00512033
3.57854e-05
0.00523064
3.5376e-05
0.00526306
3.03428e-05
0.00521471
0.000115345
0.00502244
3.12995e-05
0.00332622
-0.000150119
0.00227289
0.000930305
0.00216201
0.000215948
0.00193324
0.00108101
0.00153579
0.00147322
0.00146945
0.00144127
0.00155046
0.00138542
0.00157978
0.00136927
0.00135676
0.00129396
0.000979295
0.00113493
0.000597918
0.000917627
0.000182122
0.00087079
0.000644898
0.00525975
1.35461e-06
0.00527292
-1.72474e-05
0.0052745
6.44393e-06
0.00527836
4.26528e-06
0.00528891
-1.78036e-05
0.00525839
1.10703e-06
0.00518162
-2.0651e-06
0.00510936
3.45352e-05
0.00509939
5.97606e-05
0.0051227
5.82927e-05
0.00512635
5.99317e-05
0.00511247
1.8e-05
0.00507784
1.77276e-05
0.00500683
-1.19555e-05
0.00500403
-2.44849e-05
0.00494442
1.90329e-05
0.00493896
-3.81084e-07
0.00496828
5.02852e-06
0.00502703
1.27868e-05
0.00504389
1.44802e-06
0.00511145
-2.05008e-05
0.0051583
-1.40252e-05
0.00518915
1.7983e-05
0.00522029
3.77605e-05
0.00523389
3.4956e-05
0.00519936
3.23973e-05
0.00532147
3.8044e-05
0.00531144
4.78197e-05
0.00521716
4.24885e-05
0.00516225
2.55786e-05
0.00515784
2.78738e-05
0.00519189
2.70399e-05
0.00528161
-1.99165e-05
0.00567423
-8.9509e-05
0.00557854
0.000115532
0.00420544
-6.05573e-05
0.0023001
0.00140418
0.00211576
0.000453282
0.00169699
0.0014627
0.0012903
0.00163309
0.00122142
0.00159476
0.00121637
0.00159547
0.00122124
0.00161413
0.00104091
0.00158962
0.000768893
0.00140131
0.000518445
0.00118314
0.000226259
0.00118368
0.000955544
0.00523426
7.01481e-06
0.00523141
1.83808e-05
0.00523496
4.30823e-06
0.00523396
-2.44462e-06
0.00521783
-6.99898e-06
0.00513095
3.07636e-05
0.0051193
4.52041e-05
0.00514341
3.74715e-05
0.005206
6.62453e-05
0.00525638
5.76002e-05
0.00520584
6.66404e-05
0.00503331
3.59455e-05
0.00491532
1.41001e-05
0.00488418
1.3906e-05
0.00481453
1.8332e-05
0.00478853
1.48919e-05
0.00484842
-4.20465e-06
0.00495888
-1.14384e-05
0.00508749
-3.26659e-05
0.00525335
-3.49314e-05
0.00542878
-2.92823e-05
0.0055737
-3.98656e-06
0.00558731
3.41941e-05
0.00558539
3.41318e-05
0.00559941
1.92862e-05
0.00556445
2.84088e-05
0.00559684
-4.15697e-05
0.00555882
8.24983e-06
0.00548386
2.0699e-05
0.00539119
1.82177e-05
0.00530419
4.08499e-05
0.00520031
4.65673e-05
0.00508945
1.95088e-05
0.00488987
3.83983e-05
0.00478461
8.64691e-05
0.00353508
5.51963e-05
0.0032421
0.000614726
0.00269015
0.00134765
0.00193392
0.00218005
0.00130607
0.00201787
0.00108349
0.00183402
0.000959604
0.00184838
0.000839613
0.00188517
0.000678831
0.00186276
0.000544982
0.00164515
0.000439505
0.00145119
0.000263908
0.00147887
0.00132328
0.00526051
6.00845e-07
0.00528576
-1.21026e-05
0.00526864
-7.78564e-06
0.00526448
-2.19157e-05
0.00522396
-1.95044e-05
0.0051043
8.39662e-05
0.00513516
-1.47801e-06
0.00517027
2.574e-05
0.00525044
7.25386e-05
0.00529662
6.38019e-05
0.00526448
6.36725e-05
0.00515937
5.62691e-05
0.00502956
4.78799e-05
0.0050118
5.20031e-05
0.00498476
7.60682e-05
0.0050026
3.84049e-05
0.00504797
2.15302e-05
0.0051653
-6.11528e-05
0.0052668
-6.95951e-05
0.00537326
-6.08706e-05
0.00547207
-1.7971e-05
0.00548508
-3.76139e-06
0.00548841
2.757e-05
0.00546726
2.20649e-05
0.00540243
-5.82369e-06
0.00535159
-7.33977e-07
0.00523261
-2.57041e-05
0.00526414
-1.70309e-05
0.00520575
-1.47302e-05
0.00516722
-6.23019e-06
0.00511388
9.52124e-08
0.00514365
-2.40889e-05
0.00524142
-2.61222e-05
0.00531442
8.79281e-05
0.00533553
7.08317e-05
0.00485454
0.00010373
0.00393985
0.0002275
0.00308869
0.00268413
0.00219189
0.00316132
0.0013749
0.00252916
0.00101735
0.0021527
0.000802066
0.00213213
0.000603388
0.00216135
0.00044128
0.00212804
0.000403818
0.00191084
0.000382521
0.00176605
0.000267809
0.00178364
0.00170015
0.00525297
-7.51044e-07
0.00523937
3.3431e-06
0.00525317
-1.50718e-06
0.00525981
9.82e-06
0.00527959
2.02422e-05
0.00541084
3.29132e-05
0.0054123
3.50806e-05
0.00538419
5.81415e-05
0.00532633
2.33368e-05
0.00532192
3.79222e-05
0.00535677
2.03506e-05
0.00542216
1.91719e-05
0.00550382
1.17189e-05
0.0055839
2.32751e-05
0.0056786
3.36926e-05
0.00569715
9.36066e-06
0.00561092
3.76372e-05
0.00547184
3.2239e-07
0.00538164
-5.19578e-05
0.00532711
-3.34332e-05
0.00531835
2.68942e-05
0.00530834
1.07207e-06
0.00529967
8.35677e-06
0.00524805
1.95761e-05
0.00511524
1.52322e-05
0.00505194
1.23052e-05
0.00502353
2.03494e-06
0.00497727
-2.66408e-05
0.0049471
-1.83471e-05
0.00489258
-2.61751e-05
0.00492935
-5.92311e-05
0.00497433
-2.67991e-05
0.00521014
6.3028e-06
0.00541207
-9.81097e-06
0.00536234
-8.09006e-05
0.00505955
8.99414e-06
0.00340799
0.000495737
0.00288827
0.00362612
0.00228667
0.00377157
0.00151757
0.00299214
0.00112642
0.00251966
0.000840291
0.00246228
0.000537217
0.00247613
0.000347537
0.00240707
0.000342107
0.00223079
0.000365235
0.00212525
0.000271375
0.00211638
0.00208065
0.00525826
-1.00373e-05
0.0052637
-2.06968e-06
0.00526848
3.55399e-07
0.00528466
8.08805e-06
0.00538843
1.28179e-05
0.0054937
1.03454e-05
0.0054807
9.64843e-05
0.00543992
2.8962e-05
0.00548254
-1.64594e-05
0.00550853
1.36918e-05
0.0055012
2.80007e-05
0.00553532
2.20189e-05
0.00561736
1.80802e-05
0.00565943
2.39152e-05
0.00562777
2.22997e-05
0.00553229
2.94657e-05
0.00537544
2.74934e-05
0.00523201
2.58398e-05
0.00512126
2.75982e-05
0.00511523
-3.55067e-06
0.00513182
1.7557e-05
0.00514321
1.14542e-05
0.0051416
-1.31748e-05
0.00516118
-1.44498e-05
0.00512953
5.17116e-06
0.00509214
2.30754e-05
0.00503157
3.14095e-05
0.00496566
1.23913e-05
0.00495395
-1.91956e-06
0.00498051
-3.14925e-05
0.00499283
-6.67192e-05
0.0050205
-6.406e-05
0.00506667
-5.7387e-05
0.00506471
-5.87627e-05
0.004928
-7.5701e-05
0.00419887
-8.86785e-05
0.00211658
0.000975529
0.00211255
0.00377699
0.00192567
0.0038072
0.00162378
0.00317129
0.00135756
0.00286117
0.00106767
0.00283573
0.000629429
0.00283465
0.000312611
0.00273601
0.000299067
0.00258088
0.000366303
0.00250118
0.000294916
0.00246955
0.00246827
0.00521125
-8.4498e-08
0.00522053
-3.50908e-06
0.00524487
-4.13843e-05
0.0052418
2.54037e-05
0.00523868
2.52537e-05
0.00522384
1.28602e-05
0.00527076
1.73683e-05
0.00528399
-8.52248e-06
0.00527117
-2.9384e-05
0.00528362
-1.30211e-05
0.00529977
8.80996e-06
0.00530695
-2.16435e-07
0.00530551
-1.35841e-05
0.00533152
-2.09972e-05
0.00534545
-2.69377e-05
0.00529834
1.16665e-06
0.00520006
-2.37631e-05
0.0050415
3.07651e-05
0.00492467
3.32706e-05
0.00482678
7.467e-05
0.00488792
-2.84917e-05
0.00502659
-6.75553e-05
0.00505646
-8.53505e-05
0.00512376
-5.96326e-05
0.00518756
-4.03834e-05
0.00521011
-5.47298e-07
0.00521732
1.71725e-05
0.00525609
2.05139e-05
0.00529339
2.18758e-05
0.00525073
7.4302e-06
0.00520585
-2.23552e-05
0.00518107
-4.30909e-05
0.00516999
-5.43745e-05
0.00512222
-2.56909e-05
0.0050241
-3.79399e-05
0.00418657
4.30568e-05
0.0021064
0.00167451
0.0019178
0.00381555
0.00190111
0.00372329
0.00185113
0.00342226
0.00170923
0.00326515
0.0013172
0.00333235
0.000687037
0.00325093
0.000262729
0.00308132
0.00025145
0.00292413
0.00035256
0.00285058
0.000291796
0.00280391
0.00283558
0.00525247
-3.88832e-06
0.0052597
-3.47843e-06
0.00525606
-2.00879e-06
0.00528989
-7.72434e-06
0.00528281
-1.92037e-05
0.00525852
-3.44276e-05
0.00519234
-2.81263e-05
0.00518954
-2.79707e-05
0.00518794
-2.68702e-05
0.0051698
8.59396e-07
0.00516819
-3.35327e-07
0.00519169
-2.4523e-05
0.00520334
3.91789e-07
0.00523925
-2.46053e-05
0.00526426
-1.47453e-05
0.00534192
-5.37096e-05
0.00545894
-2.79779e-05
0.00549155
8.42485e-06
0.00544795
0.000102314
0.00542982
-6.73107e-06
0.00536809
-4.27795e-05
0.00527053
-6.47912e-05
0.0052081
-8.57429e-05
0.00520409
-6.47939e-05
0.00521483
-4.85915e-05
0.00525885
-1.64892e-05
0.00532005
7.51023e-06
0.00536455
1.96378e-05
0.00541257
9.79943e-08
0.005396
9.84201e-06
0.00534211
-1.36215e-05
0.00532096
-1.35055e-05
0.00530814
3.90938e-06
0.00530951
6.77882e-06
0.00531718
-2.68336e-05
0.00483475
1.677e-05
0.00359247
0.000485256
0.00245732
0.00403202
0.00243639
0.0040649
0.00234645
0.00404817
0.00201893
0.00396771
0.00149066
0.00390667
0.000752069
0.0036975
0.000257462
0.00341231
0.000233376
0.00325507
0.000370681
0.00316312
0.000306592
0.00314636
0.00315907
0.00524634
4.48365e-06
0.00523438
3.55881e-06
0.00522026
-1.2666e-06
0.00518543
-4.35865e-06
0.00515589
-8.32326e-06
0.00515598
-7.84015e-05
0.00514395
-3.53433e-06
0.00514008
-7.14111e-06
0.00515348
-8.76708e-06
0.00521968
-3.78597e-05
0.00525769
-1.47685e-05
0.00525721
-8.16463e-06
0.00528365
-1.43079e-05
0.00530293
-3.81139e-05
0.00532438
-4.7423e-05
0.00539807
-3.90798e-05
0.00563328
-0.000152143
0.00577598
-7.27099e-05
0.00589957
-7.79449e-06
0.00588832
-9.78425e-05
0.00555951
-7.44035e-06
0.00546015
-4.15682e-05
0.00537578
-3.68692e-05
0.00531819
-3.41014e-05
0.00528024
-3.22002e-05
0.00527137
3.51589e-06
0.00528866
1.62837e-05
0.00532809
8.68242e-06
0.00534828
1.10407e-05
0.00537913
5.6776e-06
0.00538543
1.92438e-05
0.00539867
1.95805e-05
0.00539169
4.55241e-05
0.00538544
2.39267e-05
0.00534613
4.41274e-05
0.00526782
-2.14191e-05
0.00425283
-0.000110682
0.00346416
0.00355142
0.00335176
0.00497294
0.00294447
0.00501767
0.00238262
0.00474326
0.00175895
0.00448335
0.000952956
0.00417459
0.000407334
0.00378597
0.00034337
0.00359195
0.000424963
0.00348965
0.000387161
0.00348182
0.00350222
0.00525595
-1.82583e-06
0.00525273
-1.05781e-06
0.00528328
-6.79937e-06
0.00527172
-1.65106e-05
0.00528765
-8.23245e-06
0.00521554
3.12525e-05
0.005253
-2.75817e-06
0.00526197
2.37792e-06
0.00528481
3.22014e-05
0.00528019
1.85994e-07
0.00528241
-2.04699e-05
0.00529554
-2.17534e-05
0.00527268
-1.99439e-05
0.00515141
-8.38893e-06
0.00505937
-1.65769e-05
0.00503721
-4.94749e-05
0.00487881
-5.50509e-05
0.00488569
-6.31017e-05
0.00501318
-5.70892e-05
0.00504864
-5.55297e-05
0.00514137
-4.74793e-05
0.00521992
-4.60327e-05
0.00525674
-2.8223e-05
0.00527586
-2.56308e-05
0.00526414
8.59345e-06
0.00526848
2.31915e-05
0.00529314
2.25269e-05
0.00531753
3.3846e-05
0.00532071
3.15449e-05
0.00534099
3.81294e-05
0.00537469
2.9405e-05
0.00542047
3.61576e-05
0.00550085
2.49846e-05
0.0055798
1.4596e-05
0.00583513
-3.13866e-05
0.00587291
2.75424e-05
0.00474845
1.32559e-06
0.00402741
0.00223772
0.00370527
0.00498959
0.00340021
0.00554013
0.00285128
0.00540921
0.00217106
0.00506478
0.0013931
0.00469465
0.000829983
0.00423509
0.000684504
0.00397448
0.000638891
0.00387233
0.000467008
0.00389181
0.00396353
0.00524871
-2.71519e-08
0.00524416
4.29754e-06
0.0052314
8.43099e-06
0.00524625
3.97325e-06
0.00523649
2.20592e-05
0.00526502
2.59061e-05
0.00525491
2.4026e-05
0.00523537
1.76373e-05
0.00531152
-4.23747e-05
0.0053242
-3.13004e-05
0.00531609
-2.80992e-05
0.00529959
-2.40239e-05
0.00513049
-8.824e-06
0.00504103
-7.00257e-06
0.00498037
-2.30325e-05
0.00486245
-2.94087e-05
0.0048011
-3.26883e-05
0.00473741
-6.21122e-07
0.00474002
-1.62269e-05
0.00479
-3.15402e-05
0.00483099
1.62073e-05
0.00493575
-2.46937e-05
0.00507323
-1.94401e-05
0.00515811
6.39927e-06
0.00520179
3.63489e-05
0.00519197
3.60248e-05
0.00517824
3.65835e-05
0.00518839
3.15941e-05
0.00522347
3.07957e-05
0.005266
3.75773e-05
0.0053255
3.4679e-05
0.00540315
3.47696e-05
0.00551192
1.33271e-05
0.00563733
-3.27716e-05
0.00565011
-1.68401e-05
0.00565425
-5.40796e-06
0.0049742
3.37236e-05
0.00432739
0.000108927
0.00397255
0.00391834
0.00378744
0.00563644
0.00332123
0.00599531
0.00275511
0.0056803
0.00218832
0.00523581
0.00162027
0.00478721
0.00123774
0.00450589
0.0010007
0.00434947
0.00061083
0.00448425
0.00461701
0.00525151
2.88263e-07
0.00525565
1.84792e-06
0.00524023
-1.26177e-05
0.00523892
5.19887e-05
0.00525268
-1.60963e-05
0.00525814
3.78354e-05
0.00527504
-8.16214e-06
0.00526655
-7.01512e-06
0.00525841
-1.92204e-05
0.00525955
-5.38073e-05
0.00522778
-1.77547e-05
0.00522053
1.85272e-06
0.00522489
-4.7981e-06
0.00520622
2.06327e-05
0.0051885
1.41291e-05
0.00511353
1.67312e-05
0.00498693
3.39546e-05
0.00489497
4.28986e-05
0.00489253
1.20904e-05
0.00494108
7.19328e-06
0.00494843
7.61912e-05
0.00502084
-5.71094e-06
0.00514088
-9.75177e-06
0.00520164
1.95642e-05
0.00521636
1.4461e-05
0.00515895
3.03714e-05
0.00509946
4.63934e-05
0.0050783
3.45263e-05
0.00507763
3.37064e-05
0.00510096
3.81902e-05
0.005184
2.24772e-05
0.00526253
1.28053e-05
0.00532519
-6.56657e-06
0.00539738
-3.45785e-05
0.00539759
-2.5435e-05
0.00531739
8.6413e-07
0.0050592
5.14137e-05
0.00400797
-0.00020124
0.00350481
0.00281227
0.00367151
0.00545653
0.00366751
0.00642675
0.00352482
0.00624318
0.00318725
0.00580145
0.00267113
0.00538183
0.00214558
0.00510739
0.00167116
0.00495353
0.00107233
0.00523266
0.00579212
0.00525543
1.56522e-06
0.0052861
-1.0483e-06
0.00529264
6.82377e-06
0.00528441
8.59119e-06
0.00525399
-3.99773e-06
0.00527675
-1.13269e-05
0.00525065
-8.5734e-06
0.00525832
1.45503e-05
0.00523636
-2.17744e-05
0.0050924
-3.54382e-05
0.00503617
-1.94084e-06
0.00502377
7.73268e-07
0.00509414
4.68692e-06
0.0051941
2.2207e-05
0.00525172
2.59305e-05
0.0052717
1.94011e-05
0.00529128
4.88453e-05
0.00532971
3.72929e-05
0.00534056
4.21726e-05
0.00541696
-2.80087e-05
0.00549335
2.86981e-05
0.00551913
-3.84063e-05
0.00545914
-1.36834e-05
0.00538655
1.89873e-06
0.00523021
4.50862e-06
0.0051055
1.68278e-05
0.00504425
2.47375e-05
0.00503829
2.17002e-05
0.00505444
2.27226e-05
0.00510319
2.04125e-05
0.00515411
-3.12627e-07
0.00518355
2.00113e-05
0.0051528
2.45885e-05
0.00508825
3.17232e-05
0.00506798
1.93912e-05
0.00503139
2.19767e-05
0.00499873
1.31215e-06
0.00410563
-2.67349e-05
0.0036289
0.00207428
0.00381172
0.00532915
0.00390076
0.00698778
0.0041108
0.00675619
0.00411416
0.00628752
0.00373463
0.00592345
0.00315032
0.00568464
0.00245666
0.00564556
0.00152699
0.00623815
0.0074512
0.00525389
-3.57938e-06
0.00526261
-3.80524e-06
0.00527452
7.06897e-05
0.00529271
-1.16906e-05
0.00526862
-6.64069e-06
0.00525293
-2.11584e-05
0.00521292
-2.23623e-05
0.00514533
1.91001e-05
0.00509716
1.69714e-05
0.00506557
2.86922e-05
0.00505595
4.51598e-05
0.00507638
6.7027e-05
0.00512129
4.54833e-05
0.00516206
4.45839e-05
0.00519349
4.41993e-05
0.00523011
6.31852e-06
0.00528279
1.65126e-05
0.00531213
3.03362e-05
0.00538069
2.15529e-05
0.00543206
-3.76687e-05
0.00550046
2.64456e-05
0.00554295
-2.55185e-05
0.00548653
-1.91454e-05
0.00538182
-3.53342e-05
0.00525747
-1.53101e-06
0.00513327
-8.64057e-06
0.0050589
-1.2312e-06
0.00508539
-1.0334e-05
0.00512752
-2.08484e-05
0.00521623
-1.18218e-06
0.00525605
-1.04406e-05
0.00535164
-2.47973e-05
0.00541348
1.16644e-05
0.00538762
5.29764e-05
0.00537906
1.14566e-05
0.00530917
9.16848e-06
0.00512701
3.88411e-05
0.00442663
6.19561e-05
0.00406401
0.000322176
0.00395489
0.00433391
0.00422756
0.00725199
0.00469757
0.0071733
0.00489928
0.00672435
0.00464329
0.006278
0.00414547
0.00606207
0.00356649
0.0061185
0.00337607
0.00643894
0.00658437
0.00434252
0.0052407
6.50044e-06
0.00524131
-2.70963e-06
0.00525109
1.2318e-05
0.00522493
1.28346e-05
0.0052311
5.94464e-07
0.00521333
-1.59676e-05
0.00523495
-2.68623e-05
0.00528218
-3.50741e-05
0.00525507
-7.63121e-06
0.00523462
1.02442e-05
0.00532524
8.9348e-05
0.00534828
6.85686e-05
0.00537907
4.51559e-05
0.00538081
5.96091e-05
0.005302
5.72067e-05
0.00518938
2.37407e-05
0.00508884
1.90924e-06
0.00508034
-2.33202e-06
0.00506771
1.53923e-05
0.00501342
4.21438e-05
0.00500372
5.9827e-05
0.00498761
4.80749e-05
0.00499347
4.81516e-05
0.00506238
2.24771e-05
0.00510842
-2.20733e-05
0.00511668
-2.69254e-05
0.0051164
-2.9738e-05
0.00512366
-2.4247e-05
0.00514163
-2.80233e-05
0.00520382
-8.46491e-06
0.0052922
-8.77071e-06
0.00539807
-2.8395e-05
0.00561099
-9.69126e-05
0.00567444
2.02283e-05
0.0055597
1.70416e-05
0.00558329
-3.50212e-05
0.00509463
0.000224749
0.00490606
5.82045e-05
0.00386386
0.000415726
0.0049995
0.00250965
0.00512494
0.00738749
0.00538705
0.00769995
0.00533972
0.00711508
0.005103
0.00642906
0.00481897
0.00624332
0.0044341
0.00639541
0.00452042
0.00633274
0.00671909
0.00444065
0.00526028
-6.09151e-06
0.00525402
-6.03636e-06
0.00526604
1.05664e-06
0.00516719
0.000140797
0.00521272
8.7998e-07
0.00539976
-9.32327e-05
0.00545118
-6.40267e-05
0.00546987
-8.71561e-06
0.00540229
1.17691e-05
0.00551897
7.78552e-06
0.00553316
-1.89242e-06
0.00555116
2.2816e-05
0.00558605
-1.49112e-05
0.00558354
1.85133e-05
0.00536677
2.31371e-05
0.00512494
1.8516e-05
0.00493408
-1.02953e-05
0.00482515
-2.64373e-05
0.00482153
-1.90079e-05
0.00491884
-1.20226e-05
0.00491987
2.75193e-05
0.00490951
-1.6464e-06
0.00481145
0.000123735
0.0049338
1.57071e-05
0.00512201
-2.03484e-05
0.00520951
-2.92126e-05
0.00520319
-1.58634e-05
0.005216
-2.04408e-05
0.00524407
-3.68529e-05
0.00531088
-2.78783e-05
0.00539078
-3.24826e-05
0.0054409
-5.65714e-05
0.00533327
6.03545e-06
0.00533685
-6.83438e-05
0.00529977
-4.38661e-05
0.00516622
1.04299e-05
0.0053211
-4.52733e-05
0.00603874
-0.000344919
0.00616243
2.61805e-05
0.00647221
0.000371593
0.00617677
0.00662913
0.00595444
0.00799348
0.00568051
0.00726871
0.00548427
0.00660968
0.0053377
0.00639854
0.00513557
0.0065597
0.00536287
0.00606414
0.00646766
0.00561282
0.00524362
3.65798e-06
0.00524582
-8.69492e-06
0.00522252
1.37046e-05
0.00532241
2.25434e-05
0.0052588
4.88821e-05
0.00518487
-3.43731e-05
0.00517023
-3.87483e-05
0.00523944
-6.56516e-05
0.00530003
-3.55943e-05
0.00538787
1.39905e-05
0.00547711
-1.41642e-05
0.00550492
-3.28276e-05
0.00549203
-4.77164e-05
0.00553007
-7.33987e-05
0.00548228
-2.1391e-05
0.00536839
2.77014e-05
0.00521406
1.83974e-05
0.00507864
2.47105e-05
0.00502805
1.39188e-05
0.00508004
-1.97352e-05
0.00515493
1.61942e-06
0.00515531
3.24852e-05
0.0051868
4.43606e-05
0.00516419
4.63603e-05
0.00519442
7.49954e-07
0.00521114
-1.58843e-05
0.00524878
-1.81344e-05
0.00526144
-2.14588e-05
0.00529566
-4.37087e-05
0.00536229
-2.84862e-05
0.00542066
-3.32857e-05
0.00541529
-1.21427e-05
0.00541195
-1.81226e-06
0.00535212
1.0791e-05
0.00533892
-2.02809e-07
0.00541192
-1.11541e-05
0.00564234
-0.000114808
0.00561609
-0.000152902
0.00561945
-0.000150408
0.00443448
0.000101797
0.0062294
0.00245796
0.00586603
0.00724888
0.0057802
0.00705218
0.00573818
0.0066072
0.00576952
0.0064316
0.00572693
0.00661323
0.00578907
0.00597263
0.00590028
0.00634062
0.00525026
1.36469e-07
0.00524286
1.22697e-06
0.00525001
-6.23387e-06
0.00526335
-4.15085e-06
0.00527007
-8.55065e-06
0.00510052
3.87284e-05
0.00498606
4.99777e-05
0.00498722
1.69942e-05
0.00504674
7.72513e-06
0.00516064
1.19983e-05
0.00519709
0.000102519
0.00524407
-2.12689e-05
0.00525021
-3.64204e-05
0.00526536
-4.04258e-05
0.00532375
3.38819e-06
0.00531945
4.25796e-05
0.00524282
6.03982e-05
0.00522095
6.45869e-05
0.00523283
3.26821e-05
0.00522317
1.12274e-05
0.00530872
1.28575e-05
0.00538318
2.08605e-05
0.00540544
3.62506e-05
0.00540419
4.58112e-05
0.00535448
2.46459e-05
0.00534992
-5.8574e-06
0.00533885
-1.14932e-05
0.00538039
4.29731e-06
0.00541521
-7.1951e-06
0.00546762
-3.022e-05
0.00547073
4.49246e-06
0.00548149
2.32323e-05
0.00543346
3.78552e-05
0.00538937
3.72479e-05
0.00533967
3.65933e-05
0.0053111
-9.08682e-06
0.00514861
-1.2292e-05
0.00509164
-5.18037e-05
0.0052146
-2.53139e-05
0.00492038
7.30302e-05
0.00517445
0.000182808
0.0063374
0.00493587
0.00630266
0.00677296
0.00608171
0.00682585
0.00612062
0.00653831
0.00616987
0.00661525
0.00614671
0.00599231
0.00559377
0.00642949
0.00525982
-4.98081e-06
0.00525296
6.66976e-06
0.00524299
3.80465e-06
0.00522687
2.19039e-07
0.00521345
-1.71298e-05
0.00526759
-1.06698e-05
0.00520364
-1.93868e-06
0.00525133
-1.02409e-05
0.00528553
-3.27558e-06
0.00530481
5.30624e-05
0.00529352
2.46605e-05
0.00528667
-8.36104e-06
0.00526277
-2.07101e-05
0.00509453
7.73628e-07
0.0050064
-1.98262e-05
0.00501197
4.21009e-06
0.00506153
4.31356e-05
0.00517316
6.21186e-05
0.00527489
4.36658e-05
0.00530415
4.07385e-05
0.00531559
1.5965e-05
0.00533695
8.67051e-06
0.00537085
1.5188e-05
0.00541832
3.04465e-05
0.00543914
2.56327e-05
0.00543137
4.58462e-06
0.00541928
1.69018e-05
0.00544376
-7.78693e-06
0.00539935
3.74251e-05
0.00536011
3.35832e-06
0.00532474
2.69796e-06
0.00529765
1.59677e-05
0.0052739
3.11603e-05
0.00523834
3.38497e-05
0.00519522
3.30319e-05
0.00510895
2.56242e-05
0.00511086
-1.22007e-05
0.0051892
-5.1448e-05
0.00542761
-0.000105467
0.00562361
-8.03189e-05
0.0049818
3.58545e-05
0.00671283
0.00130038
0.0067299
0.00626573
0.0066291
0.00701491
0.00649908
0.0067616
0.00646056
0.00670144
0.00631003
0.00620417
0.00560782
0.00636917
0.00524216
5.80152e-06
0.0052494
-4.77427e-06
0.00524889
-6.94411e-06
0.00522589
4.09841e-06
0.00530457
-1.28519e-06
0.00538634
-1.05468e-05
0.00549367
-7.99981e-06
0.00539848
-4.28218e-06
0.00518124
-5.3797e-05
0.00516078
-4.65016e-05
0.00511999
-8.37998e-06
0.00503186
-1.38437e-05
0.00497666
-1.10716e-05
0.00500275
-4.22089e-05
0.00498493
-2.43816e-06
0.0050158
-3.43707e-05
0.00507574
-2.22436e-05
0.00516157
1.05702e-05
0.00529151
3.88911e-05
0.00539572
4.97471e-05
0.00545576
5.09004e-05
0.00545657
2.91869e-05
0.00546177
1.82625e-05
0.00544662
-1.53402e-05
0.00544574
-3.67369e-05
0.00542126
8.79089e-06
0.00545657
1.49245e-05
0.00545255
1.3896e-05
0.00544263
2.15734e-05
0.00538491
1.74507e-05
0.00531342
2.73018e-05
0.00523995
3.78989e-05
0.0051919
3.90806e-05
0.0051876
2.58431e-05
0.00521363
5.77276e-06
0.00524869
-1.04669e-05
0.00529896
-1.52757e-05
0.00537235
-3.59e-05
0.00541956
-3.10754e-05
0.00547339
-3.58466e-05
0.00532454
-3.09395e-05
0.00501619
7.50029e-05
0.00711428
0.00335653
0.00713338
0.00690885
0.00677367
0.00700147
0.00659995
0.00671391
0.0065249
0.00633835
0.00575135
0.0064924
0.00525727
-3.511e-06
0.00524764
-8.61918e-07
0.0052578
-1.49544e-05
0.00528903
-2.78241e-05
0.00532431
-3.92239e-05
0.00531087
-3.09367e-05
0.00532727
-3.57366e-05
0.00539421
-3.14621e-05
0.00530016
-1.30831e-05
0.00525384
-1.82117e-05
0.00513373
3.9621e-05
0.00501837
-6.15657e-06
0.00499744
-7.45816e-06
0.00511451
-7.75766e-06
0.00519839
-6.22233e-06
0.0052648
-0.000141335
0.00525428
-3.94899e-05
0.00518658
1.63686e-05
0.00524365
2.47769e-06
0.00523245
5.14575e-05
0.00527918
5.4347e-05
0.00526922
4.32641e-05
0.00522571
2.20928e-05
0.00521266
-1.66147e-06
0.00521212
-1.905e-05
0.00522358
-1.88613e-05
0.00523204
-1.65336e-05
0.00525211
-2.13983e-05
0.00527377
-1.28364e-05
0.00526543
2.81807e-06
0.00523999
2.30181e-05
0.00518405
4.36786e-05
0.00517289
4.18224e-05
0.0052215
2.22174e-05
0.0052998
-1.38388e-05
0.0053524
-2.1131e-05
0.00544513
-4.55545e-05
0.00547299
-3.70953e-05
0.00547126
1.5406e-05
0.00540421
1.7684e-05
0.00534234
-3.40554e-05
0.00492248
-5.93852e-05
0.00577025
0.00069609
0.00724592
0.00490324
0.00720112
0.00685318
0.00694154
0.00679703
0.00672866
0.00663035
0.00597798
0.00659507
0.00523204
1.04461e-05
0.00521889
1.24887e-05
0.00521941
4.73203e-06
0.00521087
6.60439e-06
0.00518965
5.35243e-06
0.00507362
3.00599e-05
0.00508305
1.26607e-05
0.005149
4.89509e-06
0.00526753
-2.26687e-05
0.00537718
-3.07399e-05
0.00541794
1.89472e-05
0.00542794
-9.07986e-06
0.00545512
9.01473e-06
0.00532
-1.58969e-05
0.00524694
1.14219e-05
0.00513302
-3.04408e-05
0.00509233
3.70863e-05
0.00508568
2.15137e-05
0.00509648
-1.35117e-05
0.00511668
2.94518e-05
0.0051463
3.98328e-05
0.00515772
2.94912e-05
0.00515911
8.92448e-06
0.00515229
4.31091e-06
0.00515763
-4.18106e-05
0.005155
-4.46062e-05
0.00515223
-3.34783e-05
0.0051679
-3.39064e-05
0.00520089
-2.22355e-05
0.00522845
-1.07126e-05
0.00523735
2.40036e-05
0.0052713
1.64904e-05
0.00530057
2.33184e-05
0.00530971
2.03223e-05
0.00534117
2.19041e-06
0.00540645
-4.25749e-05
0.00539738
-9.11541e-06
0.00533131
-1.58222e-05
0.0052748
8.8148e-06
0.00521068
-1.01888e-06
0.00517054
-2.14768e-05
0.00507846
5.35221e-05
0.00460646
0.00013366
0.0062168
0.00128167
0.00655496
0.00555282
0.00674293
0.00630196
0.00693723
0.00658456
0.00622018
0.00689471
0.00525671
3.80243e-06
0.00520851
-1.01004e-05
0.00508655
-1.17323e-05
0.00509101
1.16675e-05
0.00520753
-9.46076e-06
0.0052356
7.72091e-05
0.00529014
2.64691e-05
0.00529603
3.51627e-05
0.0053047
1.21335e-05
0.00533481
2.52694e-05
0.00545176
4.33652e-06
0.00561497
-0.00012899
0.00553548
-6.26855e-07
0.00532604
-6.15562e-06
0.00522446
2.20278e-05
0.00512746
3.57001e-05
0.00514318
-8.82737e-06
0.0051834
-3.07022e-05
0.00521337
-3.1759e-05
0.00528084
5.00574e-06
0.00537289
4.86123e-06
0.00543005
3.13176e-05
0.00542342
3.48662e-06
0.00536001
-7.56533e-06
0.00529018
-3.81256e-05
0.00523222
-4.22377e-05
0.00518963
-4.44979e-05
0.00519061
-5.28783e-05
0.00518481
-3.42547e-05
0.00519488
-2.9305e-05
0.00525668
-2.86984e-05
0.00532446
-1.46315e-05
0.00539302
-1.66926e-05
0.00544573
-2.41763e-05
0.00545627
3.33144e-06
0.00540893
-5.21686e-06
0.00537406
4.82509e-05
0.00536565
2.38886e-05
0.00533474
4.61906e-05
0.0052945
3.5786e-05
0.005266
1.14865e-05
0.0052193
-4.09942e-06
0.00480751
-3.24404e-05
0.00434579
0.000219852
0.0062457
0.00240605
0.00681605
0.00555145
0.00744202
0.0063254
0.00657304
0.0073964
0.00524706
6.12446e-06
0.00523101
9.53122e-06
0.00522572
3.50908e-06
0.00524712
2.95179e-05
0.00518635
6.91313e-05
0.00523474
6.23934e-05
0.00519045
4.17374e-05
0.00518859
-2.43351e-05
0.0051426
4.07485e-05
0.00505979
4.59311e-05
0.00501924
1.07544e-06
0.00493892
-2.42177e-05
0.00508784
-5.56009e-05
0.00530704
-2.22662e-05
0.0053573
-2.69725e-06
0.00542714
7.61967e-06
0.00542801
1.44444e-05
0.00542904
-5.80249e-05
0.00543676
-3.401e-05
0.00550824
-2.42003e-05
0.0055582
-3.95164e-05
0.00558349
-2.66847e-05
0.0055543
-1.61337e-05
0.00546743