/*--------------------------------*- C++ -*----------------------------------*\
| =========                 |                                                 |
| \\      /  F ield         | OpenFOAM: The Open Source CFD Toolbox           |
|  \\    /   O peration     | Version:  v1912                                 |
|   \\  /    A nd           | Website:  www.openfoam.com                      |
|    \\/     M anipulation  |                                                 |
\*---------------------------------------------------------------------------*/
FoamFile
{
    version     2.0;
    format      ascii;
    class       volScalarField;
    location    "0.2";
    object      rho;
}
// * * * * * * * * * * * * * * * * * * * * * * * * * * * * * * * * * * * * * //

dimensions      [1 -3 0 0 0 0 0];


internalField   nonuniform List<scalar> 
16128
(
1.40176
1.40927
1.41461
1.4234
1.40511
1.36566
1.32033
1.31454
1.3181
1.36392
1.40231
1.41327
1.40411
1.39843
1.39056
1.38692
1.40531
1.42893
1.43201
1.42981
1.41824
1.4058
1.373
1.31662
1.28077
1.27753
1.28174
1.31251
1.36442
1.40107
1.41962
1.43629
1.44748
1.45031
1.50623
2.5878
5.16122
6.03544
6.07734
5.82361
5.43315
5.14215
4.99234
4.95333
5.02015
5.1119
5.151
5.14299
1.39897
1.38252
1.37408
1.37307
1.38903
1.43332
1.47411
1.49037
1.52143
1.50584
1.48921
1.47347
1.44608
1.43673
1.42502
1.42018
1.42453
1.4418
1.46345
1.48811
1.493
1.49215
1.49798
1.50715
1.50859
1.50297
1.50757
1.48597
1.47332
1.45231
1.442
1.43641
1.4358
1.44377
1.48979
2.57478
5.12452
5.94495
6.05241
5.79112
5.39835
5.12339
4.98395
4.95482
5.02502
5.11623
5.15808
5.14489
1.40475
1.40496
1.3953
1.39767
1.41518
1.43123
1.43669
1.4217
1.38437
1.33237
1.33164
1.37456
1.43297
1.44463
1.44301
1.4385
1.43012
1.42659
1.41164
1.39677
1.38488
1.39755
1.42798
1.47312
1.50883
1.51354
1.50626
1.48007
1.44843
1.43225
1.43048
1.43125
1.43126
1.42759
1.48422
2.66798
5.08173
5.73699
5.95605
5.70681
5.34216
5.08196
4.96092
4.95245
5.01812
5.09689
5.13844
5.12651
1.40003
1.3947
1.39222
1.39197
1.39517
1.39242
1.37691
1.34972
1.33148
1.30971
1.32915
1.36492
1.39385
1.41767
1.42058
1.4134
1.3915
1.36804
1.34364
1.31024
1.27967
1.25975
1.27421
1.28931
1.31385
1.33113
1.32336
1.31192
1.31
1.33995
1.36171
1.37553
1.37472
1.35934
1.45005
2.64971
5.09133
5.51648
5.76778
5.54682
5.24325
5.01385
4.92905
4.94991
5.00944
5.07731
5.12597
5.11864
1.40353
1.40542
1.40646
1.40633
1.40734
1.40553
1.39518
1.37234
1.3608
1.36062
1.36094
1.35955
1.35456
1.34392
1.34169
1.33563
1.33427
1.33163
1.33592
1.35613
1.36667
1.38452
1.3969
1.40258
1.39756
1.39467
1.41014
1.41383
1.39076
1.37986
1.37357
1.3478
1.31255
1.2291
1.34639
2.43015
5.20409
5.40763
5.62704
5.41403
5.14119
4.95477
4.89593
4.93563
4.98697
5.0485
5.1094
5.12213
1.39791
1.39573
1.39747
1.40085
1.39344
1.38386
1.37172
1.37273
1.37835
1.38433
1.38665
1.36954
1.33108
1.30329
1.29549
1.29689
1.31054
1.33392
1.35576
1.39835
1.4396
1.46085
1.4788
1.48405
1.48666
1.48639
1.48599
1.46015
1.4408
1.42265
1.40105
1.38047
1.36249
1.35137
1.40663
2.50759
5.13111
5.48079
5.55456
5.32803
5.04968
4.89361
4.86979
4.91196
4.95487
5.01851
5.09769
5.13625
1.40098
1.40752
1.40362
1.39618
1.3823
1.37009
1.36942
1.37715
1.39662
1.40543
1.40799
1.39611
1.3653
1.34353
1.3435
1.34589
1.35917
1.375
1.38646
1.4087
1.42482
1.43918
1.44231
1.44379
1.43893
1.42966
1.41087
1.40388
1.3981
1.38609
1.37334
1.37146
1.37358
1.39803
1.44071
2.59612
4.96378
5.56519
5.57368
5.26886
4.98034
4.85087
4.85394
4.88132
4.91745
4.99795
5.08554
5.14942
1.39969
1.40002
1.40496
1.40583
1.40879
1.42701
1.44542
1.44386
1.43065
1.42782
1.43734
1.45265
1.46675
1.48245
1.49722
1.489
1.47244
1.45537
1.44218
1.42428
1.41261
1.40978
1.40622
1.39931
1.37546
1.35454
1.35121
1.34381
1.33848
1.33449
1.33006
1.33958
1.38278
1.40041
1.42267
2.2743
4.52086
5.53195
5.55014
5.20558
4.92532
4.83503
4.85405
4.85109
4.88582
4.98234
5.07078
5.15693
1.40216
1.40064
1.39545
1.39416
1.40441
1.43132
1.45003
1.45673
1.46532
1.4669
1.46763
1.47314
1.48191
1.50033
1.50463
1.49008
1.4471
1.39228
1.37498
1.36903
1.37352
1.37713
1.37986
1.3775
1.36658
1.35114
1.3409
1.33482
1.33219
1.33775
1.34202
1.34722
1.35376
1.3481
1.3412
1.90372
4.09233
5.49588
5.43727
5.13487
4.90255
4.84619
4.86659
4.83496
4.85815
4.95969
5.05999
5.15705
1.39622
1.39779
1.40542
1.41313
1.41892
1.43107
1.44449
1.42888
1.41779
1.41546
1.41691
1.41869
1.41835
1.41709
1.4192
1.4126
1.38881
1.34263
1.32162
1.30793
1.31617
1.34062
1.36236
1.37189
1.38337
1.38363
1.3842
1.3883
1.39397
1.39002
1.38271
1.37557
1.37505
1.36285
1.34625
1.72727
3.74165
5.43637
5.38388
5.15044
4.93862
4.89886
4.88337
4.81968
4.82821
4.92657
5.05216
5.1441
1.3989
1.39663
1.39615
1.39983
1.40056
1.39418
1.38683
1.38636
1.38653
1.38519
1.38347
1.38653
1.39266
1.40044
1.40578
1.41853
1.42654
1.43345
1.43903
1.44799
1.43024
1.4155
1.39489
1.39097
1.39115
1.39755
1.40407
1.41566
1.42293
1.42059
1.41405
1.40706
1.40347
1.40349
1.40121
1.57121
3.2697
5.31506
5.47094
5.26364
5.04616
4.96104
4.89564
4.80572
4.80042
4.89447
5.0466
5.11643
1.39858
1.40199
1.40315
1.40294
1.40003
1.40048
1.38213
1.38002
1.37958
1.38874
1.40146
1.40317
1.40902
1.41219
1.42011
1.44085
1.48379
1.5142
1.54956
1.55594
1.51374
1.46588
1.42775
1.40853
1.40445
1.40002
1.40396
1.41471
1.41631
1.4198
1.42106
1.42555
1.42763
1.42854
1.4327
1.47893
2.44619
4.88496
5.64959
5.41729
5.14548
4.99959
4.90343
4.80917
4.78043
4.87333
5.0211
5.09031
1.40009
1.39797
1.39436
1.38818
1.38228
1.37443
1.37814
1.38578
1.39111
1.40188
1.41077
1.41137
1.40398
1.39107
1.37096
1.35173
1.33358
1.33308
1.33529
1.3395
1.35762
1.37291
1.38615
1.39497
1.4013
1.40545
1.41145
1.41525
1.42084
1.42302
1.43006
1.43739
1.44687
1.45272
1.43724
1.49951
1.97782
4.43295
5.78018
5.45414
5.1809
5.00247
4.90428
4.82549
4.77815
4.85318
4.97858
5.05668
1.40047
1.40148
1.4014
1.40279
1.40498
1.40856
1.40991
1.41353
1.4214
1.42058
1.42236
1.41247
1.39211
1.36514
1.34021
1.31027
1.28944
1.27272
1.26631
1.26898
1.27762
1.29593
1.32645
1.35587
1.37721
1.38278
1.38399
1.38631
1.38932
1.39391
1.41199
1.43774
1.45991
1.47345
1.48223
1.48565
1.62889
3.29946
5.44139
5.38255
5.18062
5.01727
4.93029
4.86122
4.8129
4.83432
4.92783
4.9918
1.39912
1.39783
1.39678
1.39698
1.402
1.40498
1.40775
1.41079
1.4057
1.40493
1.40128
1.39379
1.38966
1.38487
1.37801
1.35786
1.33775
1.31906
1.31546
1.31682
1.31943
1.32947
1.34703
1.36225
1.37313
1.37119
1.36364
1.3588
1.36133
1.3688
1.38249
1.39801
1.4099
1.41727
1.41932
1.41694
1.43064
2.25554
4.49136
5.25654
5.23
5.11538
5.03004
4.93289
4.84697
4.79658
4.7972
4.8371
1.39649
1.39567
1.40735
1.41265
1.41316
1.41427
1.41004
1.41112
1.40248
1.37932
1.35345
1.35163
1.36061
1.37517
1.39331
1.39941
1.39982
1.40379
1.41759
1.43697
1.44555
1.45145
1.45114
1.43491
1.402
1.3823
1.35798
1.35329
1.35474
1.36187
1.37058
1.37808
1.36978
1.35123
1.3486
1.34671
1.35466
1.75872
3.70354
5.14564
5.3859
5.31655
5.20156
5.04621
4.87599
4.72598
4.55759
4.2317
1.40029
1.39953
1.3987
1.39962
1.39826
1.39451
1.38914
1.37306
1.36639
1.35466
1.35222
1.35168
1.36015
1.38051
1.3935
1.40299
1.40726
1.41429
1.42356
1.42847
1.4365
1.44319
1.44709
1.43538
1.40504
1.37794
1.36717
1.35977
1.36206
1.3756
1.39871
1.41229
1.41598
1.41827
1.42218
1.40792
1.3742
1.46991
2.85237
4.65238
5.44158
5.5289
5.39461
5.12908
4.85824
4.59315
4.19933
3.31365
1.40134
1.40527
1.40567
1.40311
1.40113
1.39301
1.39323
1.39575
1.37965
1.38268
1.38275
1.41631
1.4225
1.4258
1.42435
1.40639
1.37846
1.36415
1.34914
1.33382
1.33465
1.32987
1.33139
1.34439
1.36287
1.37033
1.37328
1.37401
1.37877
1.40188
1.43118
1.45985
1.49408
1.51316
1.50185
1.46028
1.37693
1.31625
1.97223
4.08463
5.51007
5.72028
5.48845
5.10536
4.77829
4.44964
4.04134
3.19112
1.39932
1.3948
1.38321
1.38292
1.40176
1.43041
1.45062
1.46842
1.4791
1.48105
1.51025
1.49909
1.49794
1.48471
1.44245
1.4005
1.35354
1.31669
1.30688
1.30744
1.3042
1.29649
1.28817
1.30924
1.34312
1.38299
1.39214
1.39527
1.39902
1.40925
1.41908
1.41965
1.41183
1.41767
1.43189
1.47419
1.42638
1.17869
1.50665
3.21713
5.57034
5.77992
5.42077
5.04851
4.68302
4.32432
3.93763
3.20128
1.3983
1.40208
1.40678
1.41826
1.40008
1.39273
1.39246
1.39867
1.40904
1.42113
1.44473
1.46418
1.46251
1.46274
1.45582
1.43298
1.39731
1.36772
1.36223
1.36701
1.37311
1.38091
1.39302
1.37823
1.37107
1.37497
1.39651
1.41117
1.41687
1.42633
1.43485
1.42717
1.41893
1.41256
1.41716
1.43455
1.45033
1.45085
1.49199
2.24892
4.5572
5.56383
5.33953
4.97194
4.60145
4.23414
3.89513
3.37296
1.40049
1.39946
1.40044
1.40158
1.40255
1.38851
1.35846
1.34343
1.35194
1.36549
1.38244
1.39674
1.40614
1.4098
1.41521
1.4131
1.40546
1.39537
1.39284
1.3922
1.3998
1.41652
1.42812
1.42824
1.42162
1.42067
1.42434
1.43017
1.43271
1.44139
1.4417
1.43924
1.43553
1.43362
1.42762
1.42069
1.39947
1.38698
1.39405
1.53526
2.91002
4.8045
5.16076
4.90668
4.57621
4.21469
3.87613
3.52819
1.40012
1.39813
1.39565
1.39482
1.39665
1.39803
1.38962
1.37368
1.38602
1.39525
1.41104
1.40791
1.39637
1.37478
1.36027
1.35626
1.36234
1.37653
1.38986
1.40258
1.41263
1.42047
1.43252
1.43848
1.44146
1.43966
1.43547
1.43494
1.42332
1.41773
1.41302
1.41032
1.40605
1.40147
1.39739
1.38996
1.37934
1.36584
1.32917
1.39167
1.84306
3.91278
4.83829
4.82566
4.5624
4.24307
3.91251
3.60144
1.3973
1.39766
1.39815
1.40304
1.42108
1.45123
1.46573
1.47184
1.46261
1.39843
1.38354
1.3635
1.35395
1.35556
1.35547
1.35987
1.3659
1.38028
1.39824
1.41919
1.43815
1.44976
1.4544
1.45595
1.45449
1.44831
1.44768
1.44633
1.43785
1.42286
1.41358
1.40663
1.40254
1.39819
1.40481
1.41109
1.41582
1.42137
1.41758
1.43285
1.50969
2.40318
4.23867
4.70163
4.53948
4.22164
3.89897
3.58878
1.40066
1.39957
1.40141
1.40667
1.4093
1.40427
1.40011
1.40772
1.41263
1.39943
1.37936
1.34745
1.34206
1.35205
1.37733
1.41408
1.41179
1.40332
1.3998
1.40054
1.40723
1.40859
1.40531
1.40044
1.39778
1.39789
1.39967
1.40274
1.40605
1.40632
1.40311
1.40022
1.40336
1.41138
1.42263
1.43003
1.4416
1.44823
1.43766
1.42728
1.42635
1.63926
3.04605
4.33116
4.38675
4.13448
3.85608
3.58787
1.39633
1.39889
1.40101
1.39705
1.3841
1.36986
1.35736
1.36187
1.38713
1.41824
1.43195
1.43892
1.44453
1.42012
1.38047
1.36052
1.36
1.36086
1.36972
1.37088
1.37496
1.37825
1.3793
1.37944
1.38069
1.38124
1.38078
1.38298
1.3885
1.40027
1.4096
1.41383
1.41638
1.42075
1.4288
1.44053
1.43448
1.42757
1.40856
1.39573
1.40239
1.47585
1.84563
3.52115
4.01806
3.94131
3.80176
3.58987
1.40429
1.39328
1.37372
1.35185
1.33655
1.33286
1.35175
1.35835
1.39052
1.42679
1.45807
1.47452
1.47303
1.45839
1.41954
1.39324
1.38011
1.38458
1.39633
1.41
1.42231
1.43075
1.43084
1.4275
1.41688
1.40047
1.39117
1.38897
1.39091
1.39489
1.4083
1.42654
1.44219
1.45391
1.4407
1.42508
1.42066
1.42222
1.4225
1.42973
1.44201
1.41709
1.37384
2.10522
3.21299
3.7071
3.79871
3.66457
1.39845
1.39918
1.4037
1.41064
1.41973
1.42668
1.40041
1.37906
1.37373
1.3685
1.35167
1.35197
1.37167
1.39615
1.41593
1.43812
1.45946
1.46327
1.46656
1.47123
1.4837
1.48467
1.47274
1.45808
1.44178
1.41077
1.39083
1.39466
1.3894
1.38754
1.39107
1.39964
1.41581
1.42894
1.43293
1.43468
1.42851
1.41599
1.41909
1.4363
1.48402
1.42268
1.17474
1.33146
2.26438
3.4057
3.66659
3.62762
1.39869
1.39982
1.40267
1.41742
1.43674
1.44557
1.44719
1.43938
1.41544
1.36751
1.33572
1.33792
1.34429
1.37824
1.42366
1.45863
1.47486
1.48283
1.4875
1.48532
1.48579
1.4857
1.48462
1.46235
1.43671
1.40656
1.37597
1.35411
1.35789
1.36823
1.38059
1.37988
1.38083
1.3827
1.3876
1.38826
1.38975
1.38762
1.38914
1.39572
1.40692
1.38504
1.30614
1.28659
1.43902
2.27265
3.24414
3.67065
1.40121
1.40178
1.40719
1.40855
1.40562
1.40499
1.42019
1.4282
1.43714
1.46153
1.45281
1.44258
1.44094
1.45181
1.46777
1.47897
1.49025
1.49041
1.48092
1.46801
1.45898
1.458
1.46356
1.4718
1.4722
1.48071
1.46513
1.44635
1.4256
1.40842
1.39244
1.3861
1.38101
1.37326
1.3698
1.36812
1.36764
1.36689
1.36716
1.36898
1.36785
1.36193
1.3521
1.34118
1.33229
1.37891
2.06737
3.21579
1.39813
1.40543
1.41943
1.41814
1.41114
1.41489
1.42861
1.4373
1.45438
1.46637
1.4664
1.44483
1.43105
1.42548
1.43638
1.45477
1.46291
1.46788
1.4681
1.46281
1.45076
1.43919
1.43857
1.45133
1.46623
1.47983
1.49763
1.48028
1.46011
1.40647
1.38586
1.37942
1.37573
1.37164
1.37102
1.37031
1.36945
1.36916
1.36741
1.36682
1.36213
1.35964
1.35472
1.34896
1.32606
1.26087
1.42227
2.13834
1.39893
1.39177
1.37793
1.37056
1.37622
1.38224
1.38877
1.39049
1.38891
1.39153
1.37605
1.35873
1.34025
1.34313
1.36751
1.39774
1.4156
1.42147
1.41388
1.40408
1.38219
1.35579
1.34783
1.34772
1.35984
1.37339
1.37204
1.37429
1.38174
1.38737
1.38924
1.38603
1.3752
1.37268
1.36997
1.37016
1.37008
1.36661
1.36019
1.35125
1.34319
1.33855
1.33398
1.33322
1.33278
1.33227
1.34995
1.42682
1.40005
1.4027
1.40058
1.40138
1.40457
1.40197
1.3482
1.27669
1.26396
1.28054
1.35173
1.42003
1.43286
1.43375
1.42576
1.40459
1.36743
1.33852
1.32267
1.28728
1.26853
1.25031
1.26322
1.27219
1.28826
1.31487
1.3301
1.3504
1.37386
1.39372
1.40406
1.4093
1.40445
1.40005
1.39472
1.39037
1.38924
1.38403
1.36784
1.34921
1.33888
1.3279
1.32631
1.33553
1.34255
1.35407
1.37031
1.36402
1.39808
1.39563
1.39868
1.39574
1.39769
1.39685
1.423
1.42986
1.41555
1.40754
1.41619
1.43523
1.4666
1.46146
1.45094
1.39201
1.33591
1.30806
1.27229
1.24627
1.24696
1.25835
1.26795
1.27779
1.2969
1.33261
1.35965
1.37358
1.38905
1.41194
1.42921
1.4365
1.44373
1.4358
1.43115
1.4224
1.41758
1.4076
1.39216
1.37687
1.363
1.35368
1.34689
1.34439
1.35292
1.3573
1.36238
1.35846
1.40067
1.40497
1.41233
1.41717
1.41534
1.42672
1.43012
1.43787
1.43706
1.43159
1.41892
1.40467
1.3928
1.39202
1.37678
1.35701
1.33866
1.31871
1.30604
1.30758
1.30616
1.30897
1.31761
1.32674
1.32916
1.34294
1.36295
1.37721
1.39248
1.40787
1.41866
1.42609
1.43347
1.44568
1.45712
1.4563
1.44771
1.43797
1.42605
1.41235
1.40377
1.39635
1.39064
1.3881
1.38529
1.38555
1.38574
1.38536
1.39719
1.39357
1.3907
1.39204
1.39657
1.39785
1.39881
1.3954
1.39501
1.39609
1.39267
1.38667
1.37942
1.36903
1.35394
1.34218
1.34249
1.34673
1.35106
1.35466
1.35364
1.35909
1.36188
1.36634
1.37251
1.37803
1.39091
1.4055
1.41609
1.42204
1.42734
1.43227
1.44128
1.4537
1.4656
1.47364
1.47243
1.46745
1.45959
1.45214
1.44266
1.4365
1.43119
1.42455
1.42041
1.41605
1.41023
1.40579
1.40077
1.40148
1.40303
1.39148
1.38304
1.38141
1.40567
1.41918
1.42964
1.43037
1.42655
1.4131
1.3873
1.36199
1.35073
1.34749
1.3587
1.37584
1.39756
1.41239
1.41766
1.41598
1.4084
1.39981
1.39244
1.39387
1.40508
1.42238
1.42851
1.4334
1.44092
1.44585
1.45167
1.46262
1.47436
1.48055
1.48479
1.48234
1.47923
1.47358
1.47083
1.46519
1.46189
1.44979
1.43709
1.42181
1.41134
1.40157
1.39783
1.40839
1.42531
1.42329
1.42839
1.42653
1.43245
1.45906
1.46095
1.46262
1.43108
1.38942
1.35651
1.32826
1.32627
1.33278
1.35501
1.39324
1.43176
1.46147
1.47136
1.46684
1.44915
1.42968
1.41769
1.41533
1.42359
1.4327
1.4429
1.45604
1.4644
1.46691
1.46592
1.46915
1.46918
1.46909
1.46804
1.46656
1.46627
1.46561
1.46466
1.46852
1.46959
1.46281
1.44431
1.431
1.42055
1.4079
1.40065
1.39661
1.39713
1.37828
1.38256
1.40782
1.4321
1.43685
1.42924
1.40208
1.36878
1.32789
1.30661
1.30356
1.31362
1.34693
1.37043
1.38643
1.41081
1.43013
1.43565
1.43895
1.43149
1.41886
1.40678
1.40581
1.4125
1.42852
1.44437
1.45342
1.46796
1.47107
1.45965
1.44906
1.4379
1.41916
1.41026
1.40988
1.41466
1.42427
1.43375
1.45189
1.46709
1.46408
1.45639
1.44912
1.43467
1.4219
1.40226
1.40463
1.40273
1.39941
1.40258
1.40187
1.385
1.33556
1.30371
1.31271
1.34251
1.37544
1.40483
1.42679
1.43021
1.41353
1.3968
1.39212
1.38965
1.38275
1.37834
1.37486
1.37052
1.3675
1.3701
1.37761
1.38868
1.40469
1.4159
1.42448
1.42889
1.42354
1.41484
1.40151
1.3833
1.3588
1.351
1.35627
1.36328
1.37288
1.3886
1.40895
1.44284
1.46724
1.47372
1.47012
1.45809
1.43964
1.39833
1.39531
1.39955
1.40704
1.4137
1.41039
1.39675
1.35619
1.3369
1.3565
1.38818
1.41237
1.44977
1.47659
1.48994
1.48991
1.48409
1.47257
1.45001
1.42258
1.38971
1.35524
1.33573
1.31916
1.31575
1.31912
1.33117
1.34205
1.34586
1.34934
1.35049
1.3584
1.36034
1.35102
1.33207
1.31749
1.30909
1.31325
1.31831
1.32867
1.34627
1.36866
1.39939
1.42048
1.44336
1.45782
1.44773
1.42885
1.40075
1.40214
1.40095
1.39689
1.3895
1.38861
1.38929
1.40824
1.41627
1.41789
1.40993
1.40191
1.40367
1.41597
1.44677
1.49018
1.50646
1.5209
1.48469
1.44922
1.39112
1.3579
1.30643
1.27842
1.26997
1.26523
1.26736
1.27768
1.2947
1.31603
1.33874
1.35263
1.3564
1.34833
1.31979
1.30234
1.29136
1.28903
1.29497
1.30948
1.31552
1.32941
1.35495
1.38332
1.39812
1.41353
1.42038
1.41476
1.39865
1.4006
1.40479
1.40958
1.40737
1.40935
1.41621
1.42107
1.42096
1.40981
1.40034
1.39259
1.38075
1.37605
1.3822
1.39042
1.40205
1.41457
1.41033
1.39354
1.3738
1.32651
1.28954
1.27492
1.27238
1.28032
1.29832
1.32067
1.33458
1.35498
1.36787
1.37515
1.37036
1.34667
1.32235
1.31013
1.29168
1.27322
1.27932
1.29735
1.32243
1.34143
1.36729
1.39861
1.41989
1.43911
1.44759
1.45883
1.40103
1.39857
1.39024
1.3877
1.40063
1.41265
1.41647
1.41768
1.41941
1.41944
1.41826
1.4158
1.40721
1.38591
1.35636
1.34539
1.34235
1.35147
1.35455
1.35657
1.35449
1.34421
1.33694
1.33968
1.36215
1.38366
1.40838
1.43346
1.44418
1.42785
1.40151
1.38619
1.36926
1.35212
1.33802
1.32412
1.31542
1.30175
1.30229
1.31596
1.3315
1.35644
1.40403
1.43529
1.45566
1.46557
1.47894
1.48072
1.39981
1.40154
1.40039
1.39943
1.39813
1.40547
1.41852
1.42274
1.42849
1.43899
1.4481
1.44995
1.44772
1.43756
1.41703
1.40115
1.38407
1.37936
1.3821
1.38514
1.38941
1.3981
1.41544
1.43038
1.44728
1.46494
1.47259
1.47251
1.45345
1.44162
1.43094
1.42143
1.39851
1.3753
1.35409
1.34916
1.34654
1.33831
1.34096
1.35018
1.36056
1.37325
1.38508
1.40262
1.41321
1.42824
1.44091
1.42661
1.40076
1.39794
1.39025
1.38608
1.3823
1.37857
1.37974
1.39337
1.41836
1.43662
1.44368
1.4557
1.48449
1.49468
1.49472
1.48193
1.44435
1.39996
1.39824
1.40857
1.41721
1.42855
1.43806
1.44092
1.44403
1.44203
1.43529
1.42932
1.43297
1.43974
1.44201
1.43696
1.4221
1.40303
1.37914
1.36561
1.36384
1.36114
1.36047
1.3642
1.36994
1.36827
1.3674
1.38259
1.40407
1.42625
1.44681
1.46523
1.39976
1.40255
1.41108
1.41516
1.39844
1.37419
1.35006
1.34273
1.3407
1.3419
1.35278
1.36458
1.37853
1.40336
1.4189
1.43115
1.4446
1.45101
1.45299
1.45425
1.45729
1.45387
1.44714
1.42842
1.40913
1.39194
1.38748
1.39176
1.40809
1.41844
1.42415
1.42439
1.41088
1.39687
1.38685
1.37623
1.36567
1.36024
1.35473
1.35802
1.36808
1.37617
1.37861
1.39194
1.42542
1.46812
1.50238
1.52192
1.4013
1.40136
1.4018
1.41139
1.43052
1.44261
1.43488
1.38724
1.34729
1.33049
1.31647
1.31331
1.31659
1.32643
1.34646
1.37572
1.42264
1.45606
1.46942
1.47669
1.4768
1.47351
1.45806
1.43739
1.42073
1.4001
1.38897
1.3853
1.37818
1.37727
1.38011
1.38627
1.39138
1.39227
1.38982
1.38386
1.374
1.3638
1.34893
1.34274
1.36486
1.39327
1.40471
1.41733
1.44323
1.48334
1.5078
1.52362
1.39592
1.39449
1.39458
1.40884
1.43764
1.46203
1.47367
1.47536
1.44668
1.3897
1.36998
1.35462
1.34843
1.34432
1.36204
1.40611
1.43543
1.45465
1.45361
1.44391
1.43575
1.4353
1.44116
1.44333
1.43469
1.42479
1.41365
1.40761
1.38313
1.36135
1.35252
1.35807
1.36701
1.38472
1.38708
1.39149
1.38739
1.38129
1.36726
1.35772
1.36004
1.37161
1.38616
1.39299
1.41743
1.4371
1.4469
1.45958
1.40396
1.40065
1.3964
1.38939
1.37525
1.35436
1.35553
1.39092
1.42858
1.43409
1.4284
1.41626
1.40337
1.40991
1.43751
1.4691
1.48597
1.49376
1.47853
1.44833
1.43383
1.4264
1.42658
1.42475
1.42269
1.42072
1.41418
1.40541
1.39519
1.39636
1.40356
1.40877
1.42089
1.42728
1.42261
1.41539
1.41497
1.41491
1.41093
1.39634
1.38515
1.37486
1.36008
1.35039
1.35672
1.36739
1.37996
1.39626
1.39976
1.39921
1.39706
1.39472
1.36916
1.32401
1.30764
1.31168
1.34569
1.41342
1.44079
1.45162
1.47371
1.4848
1.47673
1.46601
1.46067
1.4624
1.46287
1.46768
1.4704
1.46396
1.43944
1.41904
1.40965
1.39725
1.38512
1.38272
1.38171
1.41483
1.43012
1.43392
1.44074
1.43661
1.436
1.42562
1.42258
1.43103
1.45483
1.4709
1.47169
1.45488
1.43035
1.41469
1.40183
1.40357
1.41359
1.42757
1.40115
1.39787
1.39846
1.39512
1.37158
1.36292
1.36376
1.35811
1.36405
1.42281
1.48682
1.51083
1.50225
1.47617
1.41213
1.37686
1.37271
1.38215
1.40955
1.43634
1.44038
1.44356
1.42388
1.40094
1.36696
1.34654
1.34182
1.33754
1.33778
1.34309
1.37042
1.39248
1.40323
1.41439
1.42833
1.44742
1.47007
1.48068
1.49437
1.51727
1.53442
1.53916
1.54146
1.53855
1.51087
1.49735
1.48414
1.47292
1.39929
1.40267
1.4056
1.41446
1.42431
1.43294
1.44253
1.45072
1.45121
1.42832
1.41479
1.40052
1.39305
1.38972
1.3775
1.35466
1.33977
1.33198
1.33588
1.34688
1.36062
1.36399
1.35116
1.32608
1.30927
1.29496
1.29503
1.30712
1.31856
1.33435
1.35178
1.37509
1.39552
1.40665
1.42756
1.44494
1.45407
1.4674
1.46998
1.47276
1.47483
1.47692
1.48198
1.48421
1.48612
1.48442
1.47981
1.47657
1.39851
1.39726
1.3973
1.39622
1.40846
1.41174
1.40696
1.39068
1.38414
1.37242
1.3617
1.35989
1.36423
1.36419
1.35562
1.33314
1.31104
1.29752
1.27991
1.27057
1.25576
1.24949
1.24647
1.24101
1.24918
1.26951
1.30002
1.31827
1.34514
1.37399
1.39314
1.41266
1.41849
1.41916
1.42539
1.43073
1.42298
1.41235
1.40186
1.38472
1.37566
1.37483
1.38669
1.40323
1.42026
1.42845
1.44074
1.45194
1.40094
1.40412
1.40865
1.41023
1.4102
1.41171
1.41804
1.42547
1.41722
1.41072
1.40721
1.40354
1.38867
1.36176
1.33983
1.31401
1.30244
1.29997
1.2965
1.2854
1.27343
1.26179
1.25868
1.26503
1.29446
1.32006
1.33595
1.35595
1.382
1.40785
1.43084
1.43515
1.42988
1.42216
1.42276
1.41894
1.40988
1.39359
1.37661
1.36395
1.36034
1.36413
1.38189
1.4013
1.41633
1.43176
1.43631
1.43741
1.40069
1.39796
1.39415
1.39728
1.40629
1.42333
1.43566
1.44672
1.44993
1.44526
1.43304
1.4239
1.39982
1.36969
1.34868
1.32786
1.31457
1.33075
1.35563
1.38296
1.39853
1.41838
1.42853
1.4361
1.44132
1.43467
1.42655
1.41743
1.41787
1.4211
1.42001
1.41482
1.40584
1.39355
1.38339
1.38072
1.38271
1.3896
1.39262
1.40308
1.42715
1.44925
1.45855
1.45914
1.45476
1.44376
1.43244
1.42168
1.39808
1.39857
1.39955
1.39549
1.39398
1.3989
1.4039
1.41347
1.42669
1.43777
1.43928
1.43433
1.41919
1.38749
1.36209
1.34881
1.33445
1.35209
1.3979
1.44891
1.4812
1.53061
1.57708
1.61189
1.61348
1.553
1.49099
1.46597
1.4372
1.41416
1.39652
1.37606
1.35869
1.34266
1.333
1.34022
1.35945
1.37263
1.38726
1.41156
1.45274
1.49477
1.49557
1.46451
1.42494
1.40023
1.38145
1.37718
1.40209
1.412
1.40446
1.38006
1.36667
1.34156
1.36383
1.3955
1.40808
1.43159
1.43833
1.44186
1.4304
1.41175
1.39939
1.38732
1.37966
1.39449
1.41888
1.44257
1.48752
1.53526
1.56324
1.58015
1.57466
1.54675
1.49524
1.45152
1.42565
1.38844
1.35106
1.32849
1.30994
1.30074
1.30909
1.33166
1.35428
1.37177
1.40557
1.42705
1.42663
1.42015
1.4101
1.39139
1.37293
1.35778
1.35102
1.34873
1.3924
1.40649
1.41522
1.43621
1.43225
1.41801
1.38417
1.35284
1.36609
1.38047
1.39021
1.39248
1.39891
1.40763
1.41627
1.41904
1.4212
1.41982
1.41592
1.4101
1.40381
1.39024
1.38109
1.36764
1.36431
1.3643
1.3636
1.3604
1.35057
1.33555
1.32388
1.31016
1.30543
1.306
1.31291
1.32228
1.33815
1.35363
1.36866
1.37773
1.38233
1.38589
1.38333
1.37629
1.36395
1.35603
1.35321
1.35102
1.40153
1.4025
1.4039
1.39493
1.39159
1.39481
1.39397
1.36518
1.33128
1.29564
1.28601
1.30004
1.33617
1.37794
1.41042
1.42209
1.43166
1.43117
1.42401
1.40206
1.37844
1.34491
1.32432
1.31791
1.30376
1.29472
1.29506
1.29753
1.30092
1.30453
1.30359
1.3067
1.31084
1.31702
1.32213
1.32605
1.33023
1.34007
1.34295
1.35011
1.36105
1.37207
1.37789
1.37335
1.36964
1.36402
1.36469
1.36418
1.39842
1.39805
1.38981
1.3832
1.38601
1.39791
1.39676
1.39295
1.3848
1.36538
1.35117
1.35304
1.36318
1.39098
1.42191
1.44639
1.45936
1.4666
1.4681
1.46231
1.45501
1.44022
1.42269
1.39929
1.38196
1.3778
1.37654
1.37729
1.37607
1.37734
1.37387
1.36899
1.36961
1.36298
1.3606
1.3648
1.37437
1.38188
1.38497
1.38847
1.38462
1.37341
1.35945
1.35946
1.3663
1.37156
1.3721
1.37346
1.4028
1.40062
1.39253
1.38795
1.40128
1.40945
1.41214
1.41328
1.41777
1.4299
1.43353
1.43234
1.42866
1.43068
1.44752
1.4612
1.46357
1.46581
1.47032
1.47995
1.49791
1.50756
1.49636
1.48021
1.46783
1.45556
1.44683
1.44707
1.45026
1.45188
1.4497
1.44486
1.4381
1.43028
1.41856
1.40836
1.40854
1.40858
1.41108
1.41047
1.4087
1.40369
1.39961
1.40006
1.40462
1.41619
1.42206
1.43044
1.40019
1.40787
1.43105
1.44617
1.44448
1.45111
1.44528
1.45566
1.44687
1.45434
1.45718
1.45776
1.44942
1.43076
1.40581
1.40015
1.40851
1.42925
1.45708
1.48808
1.51044
1.52262
1.52128
1.50883
1.49561
1.48651
1.47089
1.45774
1.44975
1.44504
1.44434
1.44864
1.45551
1.45829
1.45333
1.45069
1.44574
1.4374
1.43321
1.42838
1.42535
1.4248
1.42893
1.44121
1.46483
1.47312
1.47467
1.4633
1.3992
1.39581
1.39085
1.38819
1.37499
1.37195
1.41799
1.44133
1.44934
1.45073
1.43762
1.40747
1.38698
1.36116
1.34173
1.33622
1.36254
1.41405
1.44285
1.47124
1.4903
1.49243
1.49143
1.48768
1.48579
1.48214
1.47488
1.45639
1.43728
1.4344
1.43738
1.4512
1.47014
1.47552
1.4759
1.47024
1.45415
1.44019
1.43257
1.42767
1.42503
1.42519
1.41736
1.41
1.4043
1.40866
1.4065
1.39445
1.40403
1.39555
1.39022
1.39002
1.3896
1.3979
1.41337
1.43049
1.44398
1.44649
1.42318
1.39224
1.37789
1.37035
1.3624
1.35741
1.3578
1.36589
1.37303
1.37236
1.36576
1.36508
1.37111
1.37918
1.39591
1.43547
1.46488
1.47879
1.46931
1.45758
1.44674
1.44816
1.44949
1.45006
1.44755
1.43853
1.43051
1.42604
1.42566
1.4276
1.42341
1.41453
1.41654
1.41872
1.40844
1.39089
1.37019
1.35383
1.39506
1.39088
1.39182
1.39328
1.3907
1.38497
1.38002
1.38648
1.42372
1.46218
1.47773
1.47549
1.46492
1.45422
1.44834
1.41451
1.35619
1.30284
1.27729
1.24197
1.22523
1.22042
1.22445
1.23988
1.28422
1.34719
1.41828
1.45663
1.476
1.47448
1.46918
1.45995
1.45172
1.44213
1.42709
1.41473
1.41474
1.42047
1.42819
1.44024
1.45229
1.47138
1.47813
1.48103
1.47515
1.44916
1.43586
1.42173
1.41131
1.41808
1.42909
1.39872
1.37061
1.35587
1.35039
1.36491
1.39215
1.42164
1.44812
1.44119
1.42805
1.41729
1.41302
1.37975
1.329
1.27244
1.2316
1.20591
1.18149
1.16664
1.17278
1.19246
1.23744
1.29485
1.35053
1.39214
1.42496
1.4415
1.43115
1.41906
1.42496
1.43219
1.44196
1.45705
1.46759
1.46884
1.46494
1.44464
1.43273
1.43009
1.43454
1.44479
1.46297
1.47018
1.47324
1.47636
1.39623
1.39614
1.39723
1.38573
1.36541
1.35618
1.35474
1.35047
1.32297
1.30824
1.2649
1.28861
1.35172
1.38646
1.37513
1.35982
1.33331
1.3057
1.26496
1.22745
1.20016
1.19883
1.21505
1.23541
1.25657
1.28621
1.34998
1.40559
1.44398
1.46492
1.4529
1.41673
1.40204
1.39687
1.40562
1.42309
1.43373
1.43694
1.44223
1.43843
1.42814
1.38668
1.38267
1.38709
1.41424
1.43039
1.42413
1.41597
1.40086
1.39702
1.39583
1.41832
1.44834
1.45859
1.44882
1.41974
1.35441
1.30029
1.30339
1.33751
1.37626
1.38824
1.38973
1.37866
1.34905
1.32222
1.29452
1.26641
1.24405
1.23678
1.26698
1.30951
1.33598
1.38632
1.44512
1.49955
1.5246
1.53789
1.50552
1.45926
1.41395
1.37162
1.37126
1.38425
1.39196
1.40336
1.42036
1.45401
1.48787
1.5049
1.48997
1.46622
1.43887
1.41521
1.39117
1.37866
1.39931
1.39735
1.40167
1.41458
1.43189
1.44309
1.45344
1.44082
1.42812
1.41721
1.41523
1.41344
1.41602
1.41403
1.41234
1.40487
1.39407
1.37102
1.33544
1.31195
1.29718
1.30272
1.32007
1.3478
1.38037
1.42222
1.44502
1.44949
1.44608
1.42763
1.42289
1.40675
1.40917
1.4126
1.4142
1.42224
1.43089
1.4378
1.44831
1.46213
1.47724
1.49471
1.50105
1.49745
1.47714
1.44438
1.43109
1.41566
1.40125
1.40139
1.40109
1.39975
1.3991
1.40507
1.42122
1.44086
1.45431
1.46135
1.4714
1.47826
1.45272
1.43773
1.44106
1.43621
1.42671
1.40936
1.39249
1.37403
1.36484
1.3602
1.36308
1.37277
1.37856
1.37295
1.34004
1.33039
1.31512
1.29844
1.30342
1.32485
1.36971
1.39424
1.39956
1.39986
1.40303
1.40908
1.42229
1.43781
1.45038
1.469
1.47607
1.46891
1.44838
1.4302
1.42382
1.41913
1.39634
1.39581
1.39758
1.40008
1.39898
1.3932
1.39111
1.3989
1.41436
1.42722
1.438
1.43529
1.4351
1.43414
1.43208
1.42995
1.4267
1.42323
1.41819
1.41432
1.41437
1.41003
1.39167
1.37168
1.35281
1.33106
1.3154
1.28927
1.28176
1.2867
1.30841
1.33709
1.36328
1.37563
1.38007
1.38309
1.39015
1.39763
1.40572
1.41663
1.42458
1.42343
1.41153
1.39696
1.39588
1.39226
1.3968
1.40604
1.40285
1.40252
1.40334
1.40314
1.39789
1.39031
1.38687
1.39522
1.40764
1.4207
1.43782
1.45036
1.46672
1.46982
1.4578
1.43168
1.42001
1.41818
1.42657
1.4429
1.44895
1.43392
1.40967
1.38371
1.36588
1.34953
1.34762
1.35565
1.38696
1.42015
1.42439
1.4153
1.38959
1.38161
1.3797
1.38192
1.3856
1.38741
1.38781
1.37605
1.35719
1.34402
1.34692
1.37712
1.40838
1.42132
1.42188
1.41697
1.39856
1.39586
1.39635
1.3946
1.39796
1.39576
1.39144
1.37117
1.36085
1.36393
1.38127
1.4232
1.47985
1.49942
1.51273
1.50616
1.50196
1.50029
1.51872
1.52415
1.51897
1.50887
1.49621
1.4895
1.47664
1.47495
1.47205
1.48199
1.50095
1.49138
1.46549
1.43493
1.40141
1.38029
1.3776
1.38179
1.38864
1.39927
1.41096
1.41855
1.42665
1.44132
1.45555
1.47326
1.4713
1.46764
1.45498
1.43019
1.39956
1.40679
1.41176
1.41729
1.41094
1.40245
1.36197
1.30801
1.23105
1.21405
1.23766
1.33753
1.44591
1.48133
1.51315
1.54048
1.57275
1.58566
1.54998
1.53167
1.50602
1.5123
1.50447
1.50168
1.49303
1.47903
1.45316
1.42675
1.41753
1.41199
1.4081
1.39522
1.37605
1.36862
1.38104
1.39546
1.40786
1.41693
1.42729
1.43652
1.44949
1.46905
1.48162
1.47504
1.45752
1.44305
1.43178
1.41276
1.3953
1.39479
1.39514
1.39998
1.40415
1.41417
1.42321
1.41953
1.38551
1.34409
1.32637
1.3261
1.33035
1.33202
1.33053
1.32933
1.30525
1.3067
1.3169
1.33561
1.35114
1.36133
1.36443
1.37249
1.37637
1.37444
1.36334
1.34471
1.32517
1.32535
1.33793
1.34534
1.35336
1.36536
1.38056
1.39462
1.40409
1.41042
1.41223
1.41644
1.41933
1.41746
1.40034
1.39905
1.39795
1.39487
1.38867
1.38265
1.40072
1.40379
1.40601
1.4089
1.41225
1.42161
1.43111
1.44929
1.45243
1.43707
1.38388
1.32443
1.31118
1.29398
1.25617
1.21057
1.16982
1.17181
1.20703
1.24505
1.27659
1.27653
1.27306
1.28483
1.30637
1.32639
1.33374
1.33276
1.33233
1.33
1.33513
1.35315
1.36849
1.39198
1.41248
1.42265
1.42596
1.41997
1.41304
1.40626
1.40927
1.41117
1.40532
1.39791
1.39332
1.39163
1.38357
1.37345
1.40027
1.3992
1.39757
1.3957
1.38947
1.38498
1.42246
1.44904
1.45552
1.4389
1.40948
1.39489
1.3893
1.38863
1.39438
1.39299
1.36952
1.36474
1.35814
1.35143
1.34187
1.33018
1.32626
1.33824
1.34278
1.34875
1.35998
1.36524
1.36023
1.35342
1.36734
1.38807
1.40976
1.43381
1.4496
1.45023
1.44056
1.42497
1.4056
1.39291
1.3904
1.39346
1.39744