/*--------------------------------*- C++ -*----------------------------------*\
| =========                 |                                                 |
| \\      /  F ield         | OpenFOAM: The Open Source CFD Toolbox           |
|  \\    /   O peration     | Version:  v1912                                 |
|   \\  /    A nd           | Website:  www.openfoam.com                      |
|    \\/     M anipulation  |                                                 |
\*---------------------------------------------------------------------------*/
FoamFile
{
    version     2.0;
    format      ascii;
    class       volScalarField;
    location    "0.2";
    object      T;
}
// * * * * * * * * * * * * * * * * * * * * * * * * * * * * * * * * * * * * * //

dimensions      [0 0 0 1 0 0 0];


internalField   nonuniform List<scalar> 
16128
(
0.98159
0.912662
0.837173
0.91084
0.940681
1.12312
1.29284
1.26797
1.20785
1.16319
0.979625
1.02441
1.0557
1.04157
1.03281
0.995031
1.01798
1.06216
1.06329
1.03146
1.03194
1.11261
1.06836
1.08659
1.06996
1.06765
1.02574
1.08313
1.06683
1.02784
1.04261
1.03451
1.03445
1.03284
1.06712
1.38124
2.90093
3.30886
3.30335
3.33352
3.42771
3.55006
3.64785
3.70068
3.72517
3.66215
3.54071
3.4829
1.05003
1.12264
1.15556
1.10123
1.0747
0.977375
0.822239
0.858578
0.865325
0.879319
0.876138
0.978817
1.0299
1.01766
1.02236
1.02799
1.02524
1.02283
0.968943
0.964311
0.957677
0.95605
0.932794
0.89268
0.907956
0.908771
0.943707
0.95544
1.01844
1.04746
1.04227
1.04406
1.04613
1.1023
1.07112
1.39092
3.0126
3.27959
3.2976
3.33335
3.42462
3.54685
3.64694
3.70326
3.72825
3.66531
3.54331
3.48261
0.928271
0.962441
0.969581
1.0126
1.00197
0.986247
0.971459
1.01339
1.07547
1.42064
1.36415
1.24654
1.1256
1.03313
1.0348
1.035
1.05315
1.03267
1.03196
1.04114
1.05844
1.05988
1.042
1.01964
0.986453
0.992236
1.03349
1.02551
1.03151
1.04289
1.02894
1.03719
1.02445
0.982717
0.993082
1.34007
3.05568
3.25002
3.30309
3.33893
3.43281
3.55251
3.65092
3.71046
3.72854
3.66246
3.53909
3.4767
1.0194
1.02123
1.04187
1.0369
1.0264
1.02812
1.09314
1.20548
1.17555
1.09915
1.13125
1.11946
1.08132
0.992512
0.981084
1.0312
1.07933
1.07508
1.09418
1.1089
1.16936
1.25035
1.30566
1.29409
1.26226
1.25005
1.24476
1.2452
1.1813
1.08031
1.08553
1.0764
1.08481
1.03216
1.14225
1.56341
3.0036
3.30452
3.34933
3.36017
3.44908
3.56995
3.66888
3.72693
3.73048
3.65675
3.53488
3.47299
0.999605
0.987387
0.986601
0.987235
0.986885
0.983332
0.993381
1.04075
1.07387
1.04652
1.05861
1.06664
1.06045
1.05415
1.06082
1.05206
1.04818
1.02731
1.05307
1.05512
1.04623
1.06877
1.03569
1.06872
1.08994
1.08333
1.07747
1.04911
1.05376
1.06682
1.03317
1.04125
1.11258
0.98202
1.57764
1.54209
2.74668
3.36361
3.4199
3.4089
3.48362
3.60675
3.6975
3.74742
3.73209
3.64194
3.52593
3.47143
1.00374
1.01169
1.0069
0.969462
0.968548
1.05275
1.06518
1.06508
1.03298
1.03563
1.04192
1.0751
1.1042
1.16757
1.14729
1.11405
1.05689
0.981848
1.0301
1.0133
0.97086
0.978404
0.985786
0.983234
0.965393
0.966781
0.948316
0.949252
1.008
1.00128
1.01405
1.0112
1.0375
1.08541
0.998682
1.26768
2.72977
3.44123
3.44802
3.44422
3.52185
3.64864
3.729
3.75954
3.72894
3.62615
3.51705
3.4727
0.994406
0.988924
0.987514
1.01024
1.10475
1.09445
1.12712
1.06954
1.01031
1.01705
1.01546
1.0397
1.06336
1.11935
1.11048
1.08675
1.08264
1.04031
1.04595
1.04414
1.04324
1.06402
1.02896
1.03024
1.03636
1.04154
1.06457
1.09814
1.05691
1.06218
1.02554
1.02718
1.00266
0.983858
0.678913
0.984563
2.61353
3.5127
3.46187
3.4601
3.55641
3.68514
3.75341
3.76057
3.72021
3.61682
3.51019
3.47459
1.02091
1.01088
0.947983
0.984541
1.00279
0.996401
0.906964
0.958273
0.984134
1.00411
0.998028
0.992796
0.958307
0.955151
0.951467
0.953328
1.02669
0.988732
1.01147
1.02397
1.05463
1.02911
1.02996
1.04613
1.07256
1.14529
1.11535
1.11548
1.11978
1.09642
1.05034
1.08953
1.06983
0.845398
0.784398
1.03853
2.70537
3.47262
3.42717
3.45229
3.5784
3.70825
3.76979
3.7588
3.71158
3.61266
3.50593
3.47725
0.987083
1.00266
1.16261
1.14545
1.10315
1.07246
0.98036
0.950608
0.931721
0.951035
0.969483
0.967974
0.911122
0.895275
0.865723
0.90588
0.979243
1.18207
1.11671
1.06164
1.02404
1.01893
1.01482
1.03028
1.05477
1.1054
1.097
1.10316
1.104
1.09805
1.06053
1.05947
1.05549
1.04554
1.0189
1.20727
2.76243
3.38953
3.34771
3.42554
3.58201
3.71909
3.78194
3.75937
3.70359
3.60715
3.50489
3.47867
1.00092
0.976085
0.92732
0.893948
0.90291
0.846406
0.88388
0.891057
0.996116
0.996819
1.01711
1.01235
1.03743
1.02826
1.01919
1.02483
1.09361
1.22838
1.21887
1.2357
1.19229
1.07057
1.03372
1.03978
1.03886
1.03887
1.04934
1.04441
1.04934
1.06068
1.04376
1.045
1.04501
1.01096
1.01155
1.18108
2.53986
3.26076
3.26439
3.39435
3.56933
3.72413
3.78398
3.75428
3.69261
3.5992
3.50684
3.47807
0.999755
1.05979
1.0703
1.0312
0.981334
1.0347
1.02652
1.03193
1.00554
1.01156
1.00709
1.02413
1.02309
1.02128
1.0147
1.02704
1.07214
1.09225
1.03283
1.05866
1.07184
1.05098
1.03935
1.04312
1.02843
1.01405
1.01423
1.01233
1.01173
1.00725
1.0372
1.04014
1.04707
1.00692
0.972514
1.06832
1.76336
3.07722
3.24263
3.39272
3.55479
3.70913
3.76663
3.73609
3.67721
3.59105
3.51087
3.47393
1.00429
0.949123
0.852604
0.858245
0.863695
0.959649
0.98335
0.990772
0.980338
0.999439
0.998429
0.99731
1.00299
1.00085
1.01643
1.00573
0.867984
0.788628
0.724886
0.81258
0.978101
1.00319
1.01668
1.04364
1.03028
1.02546
1.03386
1.03344
1.03252
1.06133
1.05561
1.05354
1.0387
1.06728
1.06328
1.04456
1.30806
2.73137
3.29183
3.38981
3.51493
3.65483
3.71829
3.70337
3.6553
3.58493
3.50989
3.47116
0.998668
1.04862
1.1126
1.10962
1.21612
1.11952
1.17691
1.17885
1.08727
1.02997
1.0107
1.01659
1.02116
1.05972
1.06595
1.07949
1.06207
1.07503
1.17879
1.1416
1.1305
1.08693
1.03392
1.04263
1.04007
1.01542
1.01969
1.01658
1.02885
1.02581
1.04147
1.03643
1.04148
1.04375
1.00429
1.17864
1.12202
2.13317
3.14756
3.32358
3.45952
3.58005
3.64362
3.65278
3.62107
3.56993
3.49782
3.45823
0.999856
0.961899
0.964726
0.985064
0.947036
0.974292
0.936698
0.914301
0.972751
0.972657
1.00457
1.02146
1.07569
1.08959
1.09975
1.14191
1.1493
1.20643
1.23706
1.22756
1.22384
1.20914
1.16771
1.10815
1.05784
1.03215
1.03813
1.03653
1.01742
1.04488
1.03921
1.03476
0.97615
0.98437
0.980631
0.966381
1.06633
1.54535
2.87136
3.31199
3.39853
3.47187
3.54462
3.5832
3.58086
3.54245
3.47083
3.41341
1.00011
1.02913
1.02653
1.02168
1.00278
0.987896
0.99681
1.0127
1.01695
1.02585
1.01882
1.0175
1.02671
1.02674
1.0514
1.09527
1.09133
1.09215
1.11149
1.13756
1.11134
1.16223
1.15243
1.08374
1.07514
1.04748
1.05384
1.03102
1.03007
1.0243
1.05673
1.0474
1.10044
1.0938
1.09104
1.02802
1.0161
1.25176
2.83174
3.2986
3.2925
3.31632
3.38134
3.45922
3.50602
3.4923
3.42221
3.38161
1.00173
0.971892
0.966727
0.947685
0.911691
0.933294
0.933987
0.961549
0.996735
1.05144
1.12777
1.09744
1.05485
1.06843
1.06623
1.06783
1.05412
1.05
0.981801
0.900439
0.944825
0.915844
0.921913
0.986324
1.04559
1.02202
1.02343
1.0287
1.0098
1.0422
1.03614
1.10585
1.1794
1.23174
1.19018
1.19491
1.10292
1.2516
2.53896
3.13638
3.16078
3.15091
3.18828
3.29076
3.40648
3.44561
3.44322
3.52502
0.996397
1.06146
1.05584
1.05664
1.09653
1.07249
1.05446
1.03736
1.07156
1.09771
1.07441
1.08184
1.09913
1.09492
1.08499
1.08496
1.04812
1.02721
1.00796
1.01353
1.00763
1.01911
1.03713
1.02858
1.04606
1.01196
1.0201
0.995516
1.00104
1.03948
1.03951
1.02312
1.1188
1.08436
1.10742
1.05464
0.992208
1.08623
1.6846
3.16436
3.06771
2.99561
3.02623
3.13148
3.28618
3.35705
3.3307
3.07067
0.999766
0.895326
0.947471
0.945754
1.01689
1.04156
1.02701
1.04517
1.30742
1.26801
1.11639
1.03295
0.989273
1.01202
1.08434
1.05061
1.05761
1.06531
1.08495
1.12518
1.13763
1.1418
1.15968
1.1476
1.06525
1.0235
1.01928
1.0251
1.02102
1.01495
0.887281
0.891273
0.799673
0.862929
0.967519
1.0135
0.954218
0.967907
1.30314
2.80648
2.92244
2.843
2.8857
3.02308
3.17156
3.20707
3.09226
2.84591
0.995657
1.1038
1.2241
1.12706
0.907383
0.9282
0.936539
0.863723
0.656597
0.6702
0.808979
0.847329
0.826553
0.880511
1.0924
1.07102
1.09236
1.10651
1.12455
1.15541
1.15133
1.22558
1.22501
1.21819
1.0753
1.01628
1.01142
1.00908
1.00607
1.01166
1.10014
1.12283
1.11314
1.11784
1.09993
1.10173
0.686276
0.693592
1.76713
1.70597
2.559
2.70682
2.89657
3.03414
3.089
3.06092
2.90941
2.60288
1.0039
0.978254
0.842665
0.924375
1.04989
1.04067
1.03979
1.09625
1.08368
1.09502
1.05407
0.958393
0.971886
0.968735
1.03421
1.03524
1.04994
1.07749
1.07898
1.02403
1.0378
1.01443
1.05654
1.06783
1.09747
1.0635
1.04355
0.993283
1.02288
1.01607
1.0472
1.06257
1.12311
1.09084
1.08687
1.03984
0.943642
0.919804
0.901339
1.18228
2.13464
2.62394
2.92778
3.00393
2.99578
2.95127
2.79996
2.67695
0.997867
0.998049
1.00161
0.993315
1.0026
1.04771
1.07548
1.12915
1.09403
1.10458
1.09788
1.04596
1.02213
1.02404
1.01033
1.01203
1.04402
1.0527
1.05914
1.05905
1.0539
1.03107
1.00134
1.01325
0.993983
1.00614
1.00725
1.00204
1.00765
1.02567
1.03653
1.04016
1.03529
1.04343
1.0455
1.05042
1.07867
1.10696
1.0341
1.13354
1.48997
2.57432
2.9582
2.95396
2.91522
2.85732
2.75681
2.66872
0.99679
0.999081
0.998494
1.02392
1.02238
1.06763
1.11195
1.25733
1.20573
1.06684
0.996702
0.981839
0.985148
1.06602
1.0669
1.06846
1.06823
1.03982
1.05968
1.05565
1.05227
1.03516
1.01038
1.01178
1.0109
1.02508
1.0263
1.04753
1.06731
1.06192
1.07486
1.06465
1.0671
1.06075
1.06283
1.09263
1.10626
1.12116
1.03347
1.2682
1.22801
1.81488
2.84846
2.90988
2.82492
2.78182
2.71516
2.63112
1.00508
0.989948
0.989811
0.984794
0.98129
0.707076
0.673318
0.586392
0.788453
1.03133
1.01992
1.02995
1.03951
1.05232
1.03262
1.03707
1.02044
1.0351
1.02107
1.04641
1.03942
1.0081
0.998303
0.988321
0.99104
0.994281
1.00003
0.993767
1.00954
1.05559
1.04462
1.05123
1.04311
1.02824
1.02671
1.02187
1.03846
1.06023
1.05233
1.1143
1.08549
1.38175
2.26607
2.82292
2.77221
2.70293
2.64751
2.55293
0.995249
1.00876
0.997766
0.979987
0.983832
1.22259
1.21974
1.23578
1.06979
1.06223
1.07214
1.13354
1.1294
1.10954
0.950967
0.910993
0.929644
0.932038
1.02887
1.02667
1.04937
1.04734
1.04988
1.05403
1.06137
1.05878
1.0569
1.05067
1.04117
1.05176
1.04743
1.04677
1.0472
0.996398
1.02027
1.0156
1.05017
1.05797
1.0635
1.1148
1.08963
1.1927
1.57295
2.42944
2.73224
2.68806
2.65349
2.57041
1.00364
1.0046
0.923573
0.920323
0.913109
1.04186
1.09506
1.08566
1.06138
0.995986
0.969699
0.971408
0.978472
0.993003
1.16054
1.11698
1.12024
1.05486
1.03969
1.04732
1.0717
1.07838
1.0849
1.07879
1.07589
1.06166
1.06075
1.05816
1.04624
1.0379
1.01076
1.01831
1.01631
1.03656
1.03056
1.04967
1.05336
1.08957
1.13679
1.18222
1.14817
1.16623
1.0409
1.7838
2.76903
2.71224
2.65388
2.54482
0.982128
0.987594
1.23725
1.25628
1.45625
1.26833
1.22592
1.11243
1.0863
0.943577
0.813999
0.846003
0.816489
0.978808
1.03771
1.051
1.12205
1.08092
1.05
0.998067
1.03119
1.02679
1.02209
1.06435
1.05269
1.05689
1.05429
1.04873
1.04732
1.03234
1.0177
0.950657
0.97881
1.00087
1.00992
1.11827
1.08872
1.08551
1.05247
1.07
1.11474
0.902499
0.899677
1.43574
2.57053
2.76612
2.71141
2.52637
1.01234
1.00942
0.944098
0.963088
0.856629
0.905373
0.926243
1.06563
1.06112
1.06979
1.11292
1.09041
1.1058
1.01617
1.003
0.991401
0.893538
0.96746
0.977216
0.972009
0.951166
0.980445
1.00417
1.09037
1.04197
1.05343
1.03928
1.03852
1.02322
1.03176
1.02912
1.02364
1.01872
0.978666
0.980278
0.971409
1.03625
1.04682
1.06856
1.09852
1.10387
0.67932
0.737547
1.77524
1.76513
2.17956
2.34274
2.32755
1.00088
0.996921
0.995619
0.980537
0.941342
0.945396
0.944944
0.945552
0.976112
1.08501
1.19861
1.19772
1.06805
1.07829
1.05729
1.03384
1.0593
1.04349
1.02607
0.991045
0.993832
0.99417
1.01605
1.03231
1.087
1.09005
1.15285
1.15061
1.16316
1.09296
1.06717
1.05162
1.05413
1.03505
1.04533
1.04353
1.04966
1.06108
1.05931
1.07427
1.08721
0.998399
1.02526
1.20145
1.29086
1.54262
2.39633
2.38469
0.993722
1.02256
1.02012
1.00576
1.06412
1.04915
1.03341
0.953197
0.954116
0.987027
1.0014
1.06368
1.00226
0.995192
0.960844
0.98062
0.992504
1.01802
1.01453
1.01783
1.01559
1.01132
1.01323
1.02463
1.02119
1.0118
1.00727
1.01464
1.04728
1.04708
1.05057
1.07365
1.06586
1.0682
1.07101
1.06651
1.06571
1.05922
1.06395
1.06259
1.07337
1.10269
1.09793
1.09981
1.10696
1.13857
2.08081
2.11563
1.00241
0.981264
0.750331
0.778358
0.753757
0.933258
0.943258
0.934551
0.928775
0.921037
0.968564
1.05827
1.07224
1.04856
1.02328
0.990277
1.00665
1.00556
1.00237
1.00592
1.00974
1.01345
1.02615
1.02598
1.02584
0.969546
0.93028
0.910624
0.965323
1.04705
1.07517
1.08171
1.07058
1.07137
1.07059
1.0722
1.07312
1.06908
1.05491
1.05646
1.05924
1.06875
1.07604
1.10338
1.07972
1.02102
1.5908
1.52757
1.00012
1.01028
1.30366
1.32317
1.36055
1.11867
1.062
1.06981
1.0332
1.08165
1.16004
1.1496
1.15949
1.15711
1.07294
1.03624
1.03166
1.04695
1.05174
1.06379
1.04928
1.04768
1.04355
1.05679
1.10011
1.10528
1.10075
1.10672
1.0702
1.10822
1.10423
1.07711
1.06845
1.06844
1.073
1.0744
1.08204
1.07201
1.08148
1.07405
1.07804
1.07988
1.10796
1.10889
1.1064
1.09234
1.17541
1.13618
1.00178
1.00055
1.03362
1.02764
0.907035
0.965102
1.07942
1.39424
1.43832
1.37547
1.26576
0.99731
1.0075
0.999034
1.00644
1.04436
1.07341
1.14441
1.11317
1.11833
1.13176
1.09781
1.08682
1.04636
1.09045
1.08445
1.08454
1.10122
1.09502
1.06238
1.07754
1.08864
1.07801
1.08242
1.07761
1.07913
1.08027
1.06354
1.07222
1.06181
1.06602
1.06352
1.08705
1.08751
1.08234
1.11786
1.11288
1.05341
0.995524
1.06833
1.09737
1.0446
1.09874
1.05324
1.01117
1.03148
1.04925
1.07935
1.06775
0.93516
0.900105
0.897727
0.958796
0.998824
1.1951
1.08962
1.10241
1.09508
1.0905
1.04909
1.06062
1.05236
1.08216
1.06894
1.04679
1.06661
1.05542
1.04798
0.979146
0.974151
1.02376
1.05203
1.07799
1.08877
1.07754
1.08552
1.05627
1.06681
1.05319
1.06758
1.07379
1.10475
1.10184
1.10678
1.10844
1.09722
0.995729
0.832976
0.843243
0.892444
0.891641
0.924097
0.917423
0.94964
0.955592
0.964804
0.97704
1.09677
1.03911
1.03738
1.04071
1.07565
1.07041
1.07846
1.07015
1.06846
1.02702
1.0356
1.02924
1.06823
1.0665
1.10891
1.10693
1.0975
1.09733
1.06026
1.07858
1.07584
1.06565
1.08257
1.0807
1.08334
1.09464
1.07385
1.08217
1.05688
1.06345
1.06053
1.06812
1.07468
1.08641
1.08405
1.08309
1.07607
1.00085
1.09016
1.07415
1.06501
0.99341
1.00221
1.01677
1.02868
1.02308
1.02062
1.02613
1.03745
1.07331
1.06459
1.07529
1.06804
1.06923
1.05029
1.08328
1.0834
1.08594
1.07988
1.07456
1.07464
1.07478
1.06472
1.08591
1.08309
1.05564
1.05857
1.05516
1.05979
1.05299
1.07904
1.07267
1.08747
1.08606
1.08974
1.0708
1.07622
1.06667
1.07313
1.06492
1.07014
1.06028
1.06342
1.05423
1.05744
0.99904
0.991002
1.15167
1.2043
1.17697
1.11526
1.09567
0.982395
0.965753
0.989551
1.00529
1.02138
1.03489
1.09374
1.07675
1.07578
1.04054
1.0825
1.06856
1.09132
1.08319
1.09453
1.07891
1.08249
1.08154
1.06112
1.07352
1.07067
1.0647
1.07048
1.0678
1.05285
1.07633
1.06953
1.07975
1.07625
1.08281
1.08
1.08219
1.07474
1.07681
1.07086
1.07471
1.06174
1.06502
1.06033
1.06334
1.06463
1.00931
1.0085
0.646498
0.60419
0.852386
0.848319
0.897045
0.919727
0.918298
0.988471
1.0462
1.08437
1.05979
1.1073
1.12273
1.05239
1.0792
1.06671
1.08635
1.08234
1.08188
1.08401
1.09741
1.0651
1.05833
1.06656
1.06495
1.03172
1.04494
1.03569
1.05026
1.04832
1.06671
1.06778
1.07386
1.07985
1.07771
1.08093
1.08237
1.08287
1.088
1.08589
1.07225
1.06108
1.06261
1.07505
1.05538
1.06235
0.99816
0.998275
1.15829
1.37064
1.24297
1.21926
0.97907
0.964806
0.979468
1.0317
1.14039
1.16908
1.22465
1.17793
1.12906
1.09274
1.05482
1.09536
1.08496
1.06839
1.07433
1.08878
1.08164
1.08637
1.08469
1.07821
1.05113
1.04358
1.01087
1.02373
1.02311
1.03045
1.03621
1.08948
1.0749
1.07968
1.08627
1.06763
1.07871
1.0714
1.11019
1.10073
1.0786
1.07876
1.09567
1.07606
1.08573
1.06027
0.999487
0.989184
1.01372
1.0239
0.956363
0.973441
1.02422
1.15598
1.22734
1.2152
1.09126
1.11527
1.10025
1.09234
1.05659
1.06624
1.0865
1.0814
1.08415
1.0975
1.09522
1.09832
1.10277
1.10185
1.10078
1.05152
1.052
1.04037
1.0496
1.04381
1.0651
1.08462
1.08414
1.1082
1.08516
1.08091
1.07292
1.07538
1.07017
1.09205
1.0779
1.10416
1.09112
1.06733
1.05682
1.08118
1.06633
1.07989
1.00242
1.01743
1.01526
0.927685
0.943737
0.927109
0.996734
1.0705
1.13941
1.12557
1.05
1.08177
1.07237
1.06097
1.01661
0.982092
0.983631
0.995662
1.11498
1.0668
1.08633
1.10511
1.07602
1.07838
1.07737
1.07251
1.06212
1.09015
1.08937
1.14363
1.14436
1.15154
1.13864
1.13565
1.09926
1.08267
1.06179
1.04835
1.079
1.07123
1.10703
1.09122
1.11482
1.09881
1.11324
1.10792
1.11346
1.09554
0.999212
0.983867
1.01203
1.06864
1.04047
1.11993
1.06701
1.03363
1.01891
1.04375
1.06629
1.08992
1.08717
1.06541
1.03202
0.848269
0.881238
0.957055
0.983483
1.06605
1.11878
1.06387
1.07702
1.07847
1.09302
1.0961
1.13871
1.13042
1.18016
1.1653
1.17583
1.15183
1.16828
1.12182
1.12003
1.09069
1.06991
1.05302
1.06368
1.08289
1.07589
1.13857
1.12641
1.17374
1.1622
1.16515
1.14192
1.14678
1.0037
0.997024
0.880688
0.96576
0.970254
0.938805
0.956045
0.967574
1.00633
1.01712
1.03969
1.01889
1.02121
1.03271
1.02189
1.05543
1.04393
1.03365
1.04489
1.0965
1.06739
1.08135
1.07014
1.07354
1.06387
1.06848
1.05195
1.09136
1.08133
1.13187
1.11868
1.16321
1.13933
1.14677
1.1097
1.11761
1.0539
1.05588
1.08916
1.08093
1.04675
1.10976
1.09043
1.12738
1.11119
1.131
1.12558
1.08373
0.996314
1.02217
1.18531
1.12897
1.12228
1.01613
1.0152
1.00753
1.01587
1.00298
1.0027
0.985543
0.989262
1.01058
1.09344
1.09863
1.08247
1.07163
1.04619
1.05132
1.05748
1.06161
1.06569
1.04385
1.02568
1.00832
1.003
0.975185
0.997762
1.00785
1.1625
1.14691
1.1618
1.13017
1.14109
1.09359
1.09918
1.0577
1.08802
1.08226
1.0229
1.08022
1.06888
1.04609
1.07754
1.06615
1.04552
1.04929
1.00258
0.960276
0.922697
0.951245
0.956551
0.987771
0.987238
0.981931
0.99578
0.991929
0.981207
1.00041
1.00296
1.00639
1.03514
1.01629
1.02306
1.03814
1.02003
1.02185
1.01961
1.03633
1.03034
0.972003
0.982983
0.977253
0.971508
1.00275
1.03446
1.06155
1.06532
1.11068
1.13849
1.13973
1.12516
1.12792
1.08388
1.07577
1.07458
1.07186
1.04041
1.06092
1.05164
1.09144
1.08368
1.10278
1.12379
1.137
0.996783
1.03526
1.06973
1.04256
1.04648
1.05917
1.05535
1.00532
0.941074
0.94782
0.936351
0.976465
0.971493
0.942173
0.930535
0.951739
0.981355
1.08138
1.07998
1.05502
1.05501
1.04708
1.04906
1.0534
1.03499
1.03739
1.05131
1.06666
1.0637
1.05218
1.05524
1.062
1.14355
1.11853
1.13077
1.10262
1.10346
1.08718
1.08969
1.06165
1.04649
1.04688
1.08666
1.07927
1.07624
1.06209
1.08109
1.08404
1.00109
0.980933
0.93068
0.948639
0.960129
1.05098
1.12189
1.07285
1.07517
1.0645
1.04117
1.06493
1.05585
1.00173
1.03611
1.02544
1.03916
1.03311
1.03505
1.02493
1.01839
1.01827
1.04565
1.15269
1.14771
1.14043
1.12758
1.08837
1.0477
1.06466
1.06061
1.08029
1.10589
1.13877
1.1164
1.12404
1.10648
1.11048
1.08252
1.07034
1.02743
1.02875
1.02494
1.07645
1.06737
1.05615
1.02423
1.0412
0.989966
0.991006
0.9897
0.986476
0.942013
0.917189
0.965847
1.02049
1.17318
1.16584
1.14937
1.16839
1.10191
1.10091
1.08236
1.09104
1.07657
0.993906
0.987258
0.935414
0.934955
0.937654
0.975983
1.08924
1.08682
1.09346
1.11128
1.07562
1.07414
1.07873
1.08207
1.08119
1.09799
1.10717
1.10006
1.10627
1.12536
1.09844
1.09108
1.07794
1.06037
0.985354
1.01097
1.00096
1.07788
1.06589
1.04976
1.06685
1.00998
1.00942
1.00963
0.958684
0.902898
0.857608
0.852662
0.864509
0.952509
1.11303
1.07717
1.01574
1.02656
1.00552
1.0291
1.02188
0.999663
1.02651
1.02716
1.11978
1.13445
1.13295
1.10682
1.05413
1.05447
1.05385
1.04364
1.05133
1.06236
1.08315
1.13565
1.10465
1.12447
1.12733
1.12935
1.12566
1.13657
1.09648
1.10643
1.06545
1.07558
1.06829
1.00946
1.04549
1.05771
1.08074
1.07529
1.08811
0.987068
0.987705
0.993112
1.04636
1.13694
1.25035
1.22315
1.12547
1.0429
1.04319
1.0747
1.07074
1.03498
0.984211
0.936723
0.91829
0.953773
0.983513
1.02618
1.05357
1.04929
1.06877
1.06871
1.07866
1.07237
1.0809
1.06541
1.07189
1.04303
1.03609
0.989818
1.0485
1.03959
1.06551
1.07257
1.14043
1.11491
1.11667
1.08107
1.08315
1.08087
1.08571
1.1583
1.18131
1.15915
1.10797
1.12595
1.15327
1.00701
0.989709
0.989489
1.00187
1.0528
1.18436
1.23291
1.22132
1.12048
1.02547
1.03466
1.02053
1.00689
0.929311
0.965813
0.995968
1.05105
1.04787
1.04579
1.01628
1.00459
1.02469
1.04878
1.08399
1.07272
1.07908
1.07949
1.08211
1.03393
1.00966
0.96098
0.951655
1.01119
1.02749
1.08426
1.1235
1.13074
1.11964
1.0753
1.05074
1.05615
1.06196
1.11052
1.10076
1.11519
1.10409
1.09683
1.04987
0.994933
1.00015
0.990861
1.0442
1.06248
1.14142
1.13293
1.31208
1.2603
1.19736
0.930758
0.909294
0.913004
0.984705
1.03753
1.15164
1.1325
1.09092
1.01387
0.973191
0.989989
1.04485
1.07353
1.06711
1.07474
1.081
1.07994
1.09146
1.07986
1.08789
1.08052
1.0857
1.06819
1.06977
1.07792
1.07893
1.0752
1.0528
1.06055
1.05718
1.04827
1.034
1.03876
1.00054
0.993304
0.9996
1.01681
1.04404
1.00019
0.98008
0.96749
0.928117
0.959663
0.954624
0.9756
0.89785
0.923267
0.936232
1.01058
1.0212
1.06995
1.09505
1.07812
1.08501
1.09652
1.09158
1.08834
1.04524
1.05268
1.02978
1.0347
1.087
1.06812
1.07202
1.08456
1.08288
1.09012
1.08153
1.09349
1.08253
1.04314
1.07255
1.06522
1.04276
1.06646
1.06501
1.06351
1.04531
1.04244
1.03112
1.02481
1.02764
1.02469
1.03009
1.03349
1.05357
0.99909
1.05662
1.0871
1.04504
1.02386
0.989211
1.07382
1.05746
1.08768
1.06176
1.10313
1.09391
1.08806
1.10705
1.08891
1.0956
1.09958
1.15884
1.18036
1.17745
1.16156
1.13783
1.11324
1.07814
1.07686
1.06096
1.0304
1.07827
1.06146
1.08915
1.07684
1.06555
1.04818
1.05656
1.05174
1.05587
1.0619
1.11283
1.09038
1.09417
1.08797
1.07112
1.07836
1.07315
1.07886
1.07239
1.08056
1.07604
0.999723
0.939591
0.953968
0.968465
0.957281
0.974914
0.907446
0.931262
0.909258
0.950968
0.956744
0.971911
0.995769
1.09462
1.07765
1.08115
1.09219
1.0799
1.08853
1.13347
1.23003
1.21329
1.21662
1.11117
1.06432
1.01211
1.06271
1.04662
1.08381
1.06469
1.08439
1.06763
1.06449
1.04456
1.04646
1.04714
1.06032
1.07162
1.10471
1.13722
1.12115
1.14386
1.1383
1.09752
1.11492
1.12055
1.11537
1.10392
0.996712
1.04397
1.02929
1.02564
0.986956
0.966995
0.963567
0.946549
0.948363
0.961184
0.997432
0.991172
1.00019
1.07659
1.06872
1.08063
1.05484
1.0467
1.02681
1.06579
1.05438
1.08683
1.07271
1.07752
1.02403
1.07325
1.05761
1.06645
1.0551
1.06195
1.06365
1.07546
1.05334
1.06128
1.04788
1.0583
1.06883
1.06844
1.0487
1.06241
1.05355
1.06088
1.04446
1.0222
1.0536
1.05133
1.05944
1.06505
1.00849
1.00067
1.01169
1.0157
1.03467
0.957278
1.01172
1.00667
0.998877
0.971788
0.976908
0.989653
1.0356
1.07245
1.10003
1.07057
1.05915
1.03018
1.01164
0.947022
0.985605
0.965795
0.932063
0.83753
0.914154
1.00253
1.09023
1.04651
1.05919
1.04377
1.05716
1.04294
1.05622
1.03871
1.04088
1.07747
1.07384
1.06378
1.05994
1.04251
1.02556
0.919717
0.918288
0.930423
1.06157
1.07329
1.08163
1.08641
0.991605
0.967183
1.05574
1.06937
1.3667
1.8199
1.38477
1.23371
1.02131
0.981256
0.983512
0.993449
1.00651
1.08742
1.06639
1.07166
1.06022
1.04871
0.952851
0.997517
0.979277
0.976713
0.955665
0.932628
1.00316
0.983948
1.00223
1.07941
1.01649
1.0305
1.03352
1.05062
1.05778
1.07334
1.07204
1.06095
1.02522
1.04633
1.03153
1.0418
1.0429
1.09864
1.05905
1.06438
1.071
1.08554
1.08833
1.0974
1.03185
1.03508
0.835577
0.789218
0.51845
0.560079
0.84616
1.02605
1.06563
1.05669
1.06233
1.04744
1.05316
1.06747
1.06593
1.05088
1.0478
1.02879
1.00496
1.0247
1.07406
1.12627
1.12539
1.12509
1.12648
1.09943
1.09858
1.07283
1.08087
1.05255
1.06096
1.04674
1.06096
1.05904
1.01339
1.05021
1.04027
1.07057
1.06237
1.07703
1.07709
1.06663
1.06626
1.06131
1.06659
1.08123
1.08532
1.08576
0.999508
0.971452
1.03856
1.15537
1.35328
1.14555
1.08284
1.09055
1.1979
1.20283
1.2362
1.13873
1.1133
1.09287
1.05062
1.06022
1.05624
1.05741
1.119
1.21471
1.18002
1.19234
1.22107
1.15341
1.16006
1.15639
1.15751
1.11973
1.12098
1.13365
1.12555
1.12283
1.08585
1.04901
1.06413
1.05941
1.06993
1.10902
1.10584
1.10581
1.07983
1.06385
1.01588
1.01637
1.03318
1.06754
1.0742
1.07762
0.999709
1.02442
1.05964
1.08807
0.994666
1.00027
0.998787
0.999235
0.99118
1.09002
1.08954
1.09115
1.04659
1.0358
1.01325
1.04504
1.03669
1.03663
1.02784
1.02556
1.02815
1.06961
1.03289
1.04438
1.07188
1.06854
1.04642
1.05115
1.05412
1.07102
1.06922
1.06209
1.06045
1.03836
1.03667
1.04959
1.04751
1.02234
1.02875
1.03544
1.05411
1.09183
1.16993
1.17722
1.13152
1.085
1.08011
1.08777
0.987656
0.988608
1.24655
1.11978
1.00344
1.00666
1.00857
0.998447
1.01527
1.01129
0.999048
1.00262
0.984533
1.03304
1.02098
1.03524
1.04331
1.0421
1.03795
1.02286
0.985538
0.997106
1.00435
1.05536
1.0393
1.02914
1.02541
1.00829
1.01344
1.01578
1.01656
1.00425
1.00844
1.01476
1.03178
1.06464
1.04993
1.05331
1.05755
1.05657
1.05548
1.05512
1.05354
1.05488
1.05332
1.02927
1.03059
1.05417
1.01028
1.00265
0.628978
0.779775
0.650081
0.810243
0.809491
0.882384
0.93529
0.93778
0.936181
0.938214
0.937467
0.958844
1.05891
1.07829
1.05205
1.0362
1.02638
1.02521
1.01259
1.02674
1.0197
1.02625
1.0564
1.03997
1.04277
1.04697
1.05539
1.05563
1.04637
1.06579
1.06123
1.04856
1.0409
1.04319
1.03124
1.03279
1.0388
1.03743
1.04524
1.04819
1.04676
1.00925
0.951696
0.949706
0.9403
0.93737
1.0001
1.00602
1.20164
1.119
1.33719
1.19822
1.15162
1.0133
0.978049
0.966482
0.981035
1.05791
1.05156
1.05752
1.10993
1.13107
1.11037
0.990775
1.02498
1.01105
1.03416
1.03115
1.05377
1.05032
1.05296
1.05438
1.0686
1.09122
1.10898
1.08322
1.01392
1.03564
1.03201
1.02364
1.02973
1.00941
1.01501
1.03634
1.03505
1.0377
1.05099
1.07336
1.07983
1.09787
1.06982
1.06666
1.04105
1.04958
0.981664
0.965213
1.0254
1.03889
1.03482
1.04179
1.03664
1.01146
0.968377
0.973579
1.02084
1.10334
1.09704
1.11113
1.09293
1.09232
1.09156
1.08901
1.08577
1.08479
1.08815
1.10298
1.10021
1.06824
1.09119
1.08386
1.06344
1.07294
1.07725
1.08499
1.04786
1.05113
1.04384
1.04052
1.05192
1.04902
1.0546
1.03512
1.03045
1.0338
1.14791
1.12401
1.2058
1.15382
1.13829
1.13784
1.15037
1.12498
1.06889
1.22049
1.09048
1.07834
1.06928
1.07908
1.07763
1.05335
1.02659
0.930372
0.885258
0.900586
0.942985
0.918265
0.947285
1.01074
1.10322
1.19458
1.13208
1.14153
1.15633
1.13388
1.07973
1.14281
1.12573
1.11726
1.09698
1.06862
1.05095
1.01781
1.02435
1.01063
1.01386
1.02088
1.02885
1.13178
1.08652
1.04394
1.0566
1.05499
0.898448
0.933585
0.86632
0.886288
0.984985
1.09079
1.07895
1.07725
0.893758
0.819755
0.904873
0.923621
1.10079
1.0894
1.08221
1.07063
1.02483
0.921678
0.81314
0.831369
0.907178
0.909675
0.95083
1.13637
1.12776
1.162
1.15399
1.17908
1.13007
1.12036
1.09866
1.10957
1.17044
1.14236
1.17255
1.15924
1.15262
1.06191
1.06289
1.0394
1.03069
0.984068
0.984186
0.94989
0.976747
0.97551
1.02487
1.04382
1.03737
1.04541
1.02099
1.08567
1.07849
1.07258
1.06294
0.991399
1.03554
1.0261
1.0282
1.03744
1.21052
1.12602
1.09093
1.09419
1.10237
1.26231
1.69749
1.51016
1.37199
1.04634
1.10673
1.10305
1.14467
1.11794
1.13597
1.13124
1.11745
1.1187
1.05112
1.11116
1.08867
1.15065
1.13008
1.11479
1.07082
1.06781
1.02064
1.02306
1.01856
1.00078
1.03545
1.03478
1.03838
1.03716
1.03787
1.039
1.16181
1.23143
1.28059
1.25637
1.23655
1.08778
1.09088
1.11861
1.00108
0.997096
0.988984
0.975002
0.804689
0.889327
0.919257
0.982659
1.02989
1.15916
1.09084
1.05443
0.94088
0.964856
0.935685
1.00162
1.14597
1.12005
1.14386
1.11964
1.13907
1.11735
1.09013
0.8656
1.02362
1.0156
1.00024
0.950395
0.958209
0.982422
0.94502
0.962365
0.987307
1.19397
1.2007
1.17184
1.1043
1.08563
1.05498
1.0378
0.910727
0.934531
0.945343
1.12616
1.10386
1.12297
1.10513
1.10819
1.00185
1.00814
1.00859
1.00371
0.937783
0.938074
0.96499
1.01583
1.00809
1.01031
1.03597
1.0225
1.04704
1.0488
1.06027
1.04839
1.12642
1.11097
1.11615
1.12303
1.12285
1.11985
1.02597
1.10697
1.08256
1.00821
1.06603
1.0479
1.05667
1.08115
1.06134
1.02853
1.00238
0.935537
0.870984
0.924429
0.990462
1.00968
1.00427
0.981337
0.98942
0.978708
1.00465
1.06348
1.03619
1.04077
1.05089
1.03734
0.994641
0.991971
1.00566
1.01806
1.00206
1.00709
1.00129
0.973161
0.973179
0.958533
0.88531
0.915332
0.92383
0.990451
1.00859
1.02578
1.0851
1.08117
1.09211
1.08426
1.09175
1.09196
1.09279
1.07937
1.06853
1.1393
1.1699
1.20325
1.17805
1.18766
1.18621
1.0946
1.04737
1.02414
1.04169
1.03532
1.04332
1.04075
1.03797
1.00493
1.02057
1.01494
1.01039
1.01549
1.03053
1.06354
1.0592
1.05628
1.00386
1.00813
1.00572
0.999347
1.01889
1.04273
1.05122
1.04094
1.0083
1.04413
1.08468
1.05543
1.08604
1.06619
1.04904
1.04074
1.04622
1.04114
1.04275
1.06729
1.06813
1.07235
1.08142
1.19775
1.18324
1.19554
1.17625
1.14257
1.11081
1.07323
1.07607
1.06737
1.05301
1.05558
1.04522
1.05204
1.04851
1.01941
1.03711
1.03453
1.00269
1.07538
1.07331
1.07259
1.07382
1.08785
1.08487
1.05296
0.988522
0.982892
0.988277
0.989984
0.993095
1.03209
1.04748
1.04532
1.02676
1.03671
1.03287
1.0256
0.986192
0.983176
0.985939
1.04732
1.07846
1.06247
1.06651
1.06342
1.06626
1.07208
1.17323
1.168
1.18279
1.15828
1.14953
1.06197
0.988645
0.957932
0.969795
1.00353
1.05607
1.05314
1.04593
1.04698
1.04422
1.05193
1.05203
1.08013
1.27257
1.24829
1.2425
1.15041
1.05785
1.05451
1.05629
1.06071
1.02701
1.08248
1.05201
1.02091
0.999495
0.999447
1.03055
1.08335
1.12219
1.11143
1.09029
1.04948
0.941357
0.936919
0.947842
0.961562
1.03937
0.988628
0.944323
0.967283
0.971081
1.01329
1.04354
1.03721
1.03032
1.03072
1.01824
0.89793
0.849668
0.849411
1.01143
1.00562
1.01786
1.05501
1.05581
1.05254
1.05542
1.04881
1.05468
1.03515
1.0407
1.04876
1.03539
1.00071
0.997797
1.02685
1.01944
1.02305
0.965815
0.91741
0.933034
0.939671
0.943157
0.996036
1.02745
1.19656
1.36454
1.40781
1.31971
1.19735
0.938694
0.988622
0.982488
0.887479
0.734789
0.754511
0.761989
0.85335
0.877236
0.937033
0.947634
0.944932
0.949002
0.958652
0.973855
1.03038
1.01123
1.0179
1.00781
1.01718
1.03469
1.06666
1.06035
1.04768
1.04941
1.01984
1.02089
1.01359
1.03581
1.05786
1.08407
1.0664
1.07569
1.08756
1.06738
1.07438
1.03541
1.02861
1.03337
1.02829
0.986262
0.943526
0.970019
1.01242
1.06845
1.14779
1.13767
1.14195
1.15928
1.1341
1.14856
1.09694
1.10205
1.10926
1.07623
1.10213
1.10123
1.1075
1.10245
1.08972
1.04902
1.03715
1.03979
1.07241
1.13264
1.11751
1.06935
1.06978
1.06744
1.0779
1.06643
1.08327
1.0746
1.08974
1.07032
1.06085
1.05996
1.11081
1.14352
1.14991
1.13339
1.13457
1.11651
1.12049
0.997569
0.991082
0.998432
0.996871
0.914747
0.9512
0.938507
0.956093
0.957399
0.982237
1.01576
1.21827
1.22027