/*--------------------------------*- C++ -*----------------------------------*\
| =========                 |                                                 |
| \\      /  F ield         | OpenFOAM: The Open Source CFD Toolbox           |
|  \\    /   O peration     | Version:  v1912                                 |
|   \\  /    A nd           | Website:  www.openfoam.com                      |
|    \\/     M anipulation  |                                                 |
\*---------------------------------------------------------------------------*/
FoamFile
{
    version     2.0;
    format      ascii;
    class       volVectorField;
    location    "0.2";
    object      U;
}
// * * * * * * * * * * * * * * * * * * * * * * * * * * * * * * * * * * * * * //

dimensions      [0 1 -1 0 0 0 0];


internalField   nonuniform List<vector> 
16128
(
(2.98963 -0.00459405 0)
(2.99485 -0.0261197 0)
(2.96244 -0.0381439 0)
(2.99371 -0.0299063 0)
(2.97341 -0.0146013 0)
(2.94067 0.0900854 0)
(2.98822 0.145397 0)
(3.07213 0.199386 0)
(3.02285 0.193916 0)
(3.07027 0.165143 0)
(3.03483 0.118916 0)
(3.00554 0.0564577 0)
(2.96225 0.0364361 0)
(2.94156 0.0183191 0)
(2.94344 0.0042122 0)
(2.96942 -0.0116672 0)
(2.97132 -0.0208589 0)
(3.00125 -0.0165739 0)
(3.03878 0.00806089 0)
(3.08084 0.0488746 0)
(3.08751 0.0975466 0)
(3.00201 0.131448 0)
(2.90767 0.192238 0)
(2.87136 0.219007 0)
(2.82315 0.202081 0)
(2.8262 0.173289 0)
(2.88733 0.145215 0)
(2.9158 0.100955 0)
(2.94151 0.0478829 0)
(2.99352 0.0135792 0)
(3.01246 -0.00692382 0)
(3.01057 -0.0210019 0)
(3.02047 -0.0239678 0)
(3.01858 -0.0355018 0)
(2.96028 -0.0243239 0)
(2.26103 -0.0117677 0)
(0.578037 0.0415042 0)
(0.46868 -0.0437375 0)
(0.423318 0.00652649 0)
(0.349969 0.0405683 0)
(0.268605 0.0480955 0)
(0.243199 0.0385803 0)
(0.256909 0.0316254 0)
(0.25706 0.0200613 0)
(0.223506 0.0152735 0)
(0.149682 0.0127586 0)
(0.0686435 0.0105222 0)
(0.0141767 0.0138005 0)
(3.01422 0.00403136 0)
(3.01449 -0.00575577 0)
(3.05026 -0.0125716 0)
(3.03363 -0.0128391 0)
(2.99135 0.00379521 0)
(3.01386 0.0445881 0)
(3.01374 0.0651226 0)
(2.98667 0.0631524 0)
(3.01001 0.0391866 0)
(2.99111 -0.0217248 0)
(2.95297 -0.050015 0)
(2.96349 -0.0438947 0)
(2.97227 -0.0149558 0)
(2.99505 -0.00371394 0)
(2.99082 -0.00989087 0)
(2.99262 -0.0320547 0)
(2.9926 -0.0397221 0)
(2.99 -0.0251557 0)
(3.01269 -0.0175454 0)
(3.03636 -0.0023945 0)
(3.03614 0.0123511 0)
(3.04432 0.0384157 0)
(3.06236 0.0692733 0)
(3.06977 0.0780041 0)
(3.07953 0.0698333 0)
(3.04771 0.0524297 0)
(3.06496 0.00654419 0)
(3.04623 -0.012613 0)
(3.05209 -0.0128048 0)
(3.01851 -0.010506 0)
(3.00838 -0.00630855 0)
(3.00758 -0.0100259 0)
(3.00334 -0.0126993 0)
(2.97991 -0.00985899 0)
(2.9358 0.0119091 0)
(2.24561 0.00507864 0)
(0.62896 0.075366 0)
(0.456683 -0.0188106 0)
(0.389742 0.0333245 0)
(0.324457 0.101616 0)
(0.266334 0.114256 0)
(0.263696 0.103408 0)
(0.285209 0.0866194 0)
(0.274876 0.0646898 0)
(0.226874 0.0543192 0)
(0.144177 0.0414678 0)
(0.0612257 0.0313832 0)
(0.00550917 0.0245553 0)
(2.98593 0.00271764 0)
(2.99026 0.00879356 0)
(2.99246 0.00993803 0)
(2.99778 0.00662971 0)
(2.98859 0.0057364 0)
(3.00101 -0.0162632 0)
(2.97342 -0.0612464 0)
(2.97335 -0.100953 0)
(2.96131 -0.100713 0)
(3.02622 -0.100276 0)
(3.11306 -0.0733486 0)
(3.10389 -0.0481144 0)
(3.09584 -0.0200708 0)
(3.061 -0.0067995 0)
(3.05758 -0.0093426 0)
(3.04464 -0.0231158 0)
(3.01395 -0.0315783 0)
(3.00692 -0.0387153 0)
(2.97862 -0.0557894 0)
(2.95794 -0.0667069 0)
(2.94906 -0.0821236 0)
(2.98463 -0.101695 0)
(3.04111 -0.134646 0)
(3.09792 -0.151372 0)
(3.13878 -0.146803 0)
(3.13953 -0.145434 0)
(3.07872 -0.140652 0)
(3.0698 -0.128184 0)
(3.02487 -0.0854154 0)
(3.0213 -0.0282845 0)
(3.01634 -0.0130578 0)
(3.01021 -0.0115386 0)
(3.00443 -0.0117392 0)
(2.99901 0.00394543 0)
(2.93249 -0.00148444 0)
(2.20674 -0.0451348 0)
(0.587595 0.0985398 0)
(0.382369 -0.00844203 0)
(0.35793 0.0783043 0)
(0.294416 0.163054 0)
(0.258123 0.168285 0)
(0.270256 0.161748 0)
(0.290326 0.148123 0)
(0.273475 0.126226 0)
(0.220146 0.106302 0)
(0.142454 0.0827144 0)
(0.0631032 0.0681104 0)
(0.00167599 0.0494316 0)
(3.00183 -0.0046899 0)
(3.00421 -0.00351423 0)
(3.00778 -0.00356537 0)
(3.00329 -0.00164502 0)
(3.00488 -0.00147031 0)
(2.98916 -0.00223858 0)
(3.0071 -0.00244305 0)
(2.971 0.00221253 0)
(2.97204 0.0236804 0)
(2.96405 0.0617089 0)
(3.02435 0.0628597 0)
(3.03566 0.0475105 0)
(3.02201 0.013727 0)
(3.04499 -0.0178808 0)
(3.03538 -0.0248317 0)
(3.0317 -0.0220894 0)
(3.00802 -0.0206066 0)
(2.96571 -0.0118116 0)
(2.95564 -0.00427678 0)
(2.93673 -0.00277627 0)
(2.94845 -0.00338814 0)
(2.9034 -0.00443354 0)
(2.96334 -0.00667892 0)
(2.96196 -0.016855 0)
(2.98184 -0.0265432 0)
(2.98929 -0.0274329 0)
(2.93567 -0.0170251 0)
(2.95119 -0.0113547 0)
(2.94929 -0.0049235 0)
(2.99277 -0.00488671 0)
(3.0138 -0.0131746 0)
(3.03532 -0.0124079 0)
(3.03663 -0.019317 0)
(3.04425 -0.0195017 0)
(2.92781 -0.0839084 0)
(2.08671 -0.0951166 0)
(0.505503 0.151566 0)
(0.321774 0.00715353 0)
(0.295313 0.113399 0)
(0.231818 0.188939 0)
(0.215105 0.205588 0)
(0.239715 0.205023 0)
(0.257796 0.20268 0)
(0.241495 0.18554 0)
(0.191443 0.15814 0)
(0.128662 0.123649 0)
(0.0598915 0.111039 0)
(-0.00469276 0.0815568 0)
(2.99918 0.000652259 0)
(2.9994 0.00069 0)
(2.99979 0.0042305 0)
(3.00178 0.00924348 0)
(3.00361 0.00489357 0)
(2.99011 -0.00143697 0)
(2.99204 0.00540917 0)
(2.97487 0.0292399 0)
(2.99734 0.0453976 0)
(3.01292 0.0414553 0)
(3.01587 0.0313836 0)
(3.00481 0.0148387 0)
(3.0114 -0.0142041 0)
(2.98619 -0.0371287 0)
(2.97799 -0.0493823 0)
(2.96917 -0.0361959 0)
(2.96287 -0.00201126 0)
(2.97972 0.024946 0)
(2.96742 0.0355517 0)
(2.98912 0.0365821 0)
(2.98516 0.0503769 0)
(3.00045 0.0714979 0)
(2.98058 0.0883773 0)
(2.97508 0.113375 0)
(2.98479 0.118182 0)
(2.9806 0.121063 0)
(3.00155 0.123835 0)
(3.02268 0.121405 0)
(3.00684 0.0955189 0)
(3.00042 0.0477322 0)
(3.02324 0.018916 0)
(3.04215 0.0181384 0)
(3.06569 0.0106925 0)
(3.20173 0.00380239 0)
(2.93333 0.0194369 0)
(2.05761 -0.00573777 0)
(0.504293 0.224857 0)
(0.323792 0.0670521 0)
(0.271119 0.178442 0)
(0.200078 0.22639 0)
(0.177369 0.231685 0)
(0.198299 0.237503 0)
(0.203881 0.243811 0)
(0.187044 0.234759 0)
(0.144386 0.204632 0)
(0.107458 0.166748 0)
(0.0559664 0.16168 0)
(-0.00010481 0.126069 0)
(2.99881 0.00073296 0)
(2.99893 0.000128207 0)
(3.00066 1.32944e-05 0)
(3.00498 -0.00480957 0)
(2.99702 -0.0205617 0)
(2.98755 -0.0234213 0)
(2.98564 -0.0171341 0)
(2.99534 0.00551067 0)
(3.02765 0.0284342 0)
(3.02933 0.0323416 0)
(3.01649 0.0320541 0)
(2.99405 0.0178551 0)
(3.00031 0.00846416 0)
(2.98954 0.00479846 0)
(2.9812 0.00781902 0)
(2.96421 0.0069583 0)
(2.96484 0.00701273 0)
(2.98282 0.00312629 0)
(2.9838 0.0027114 0)
(2.99908 -0.00214242 0)
(3.04001 -0.00766163 0)
(3.03232 -0.00409364 0)
(3.02616 0.00651455 0)
(3.00964 0.0213035 0)
(3.01284 0.022562 0)
(3.00882 0.0214113 0)
(3.03454 0.0177448 0)
(3.0274 0.015821 0)
(3.02423 0.0192047 0)
(3.01307 0.0176955 0)
(3.01855 0.0212302 0)
(3.00458 0.0277611 0)
(3.01206 0.0386857 0)
(2.9869 0.0355174 0)
(2.94557 0.165522 0)
(2.1956 0.110573 0)
(0.748021 0.220515 0)
(0.472385 0.119427 0)
(0.329088 0.262255 0)
(0.21822 0.273506 0)
(0.171335 0.270711 0)
(0.166151 0.277947 0)
(0.151144 0.283286 0)
(0.128123 0.277295 0)
(0.0945088 0.243078 0)
(0.0829267 0.208766 0)
(0.0515209 0.209141 0)
(0.0159759 0.177917 0)
(2.99553 -0.00091624 0)
(3.00528 -0.000293153 0)
(2.99957 0.000406879 0)
(3.0149 -0.00281995 0)
(3.00284 0.00108786 0)
(2.98019 0.0268026 0)
(3.00588 0.0414304 0)
(2.99798 0.0409907 0)
(3.01896 0.0356378 0)
(3.02534 0.0341101 0)
(3.00029 0.0359949 0)
(3.00294 0.0400603 0)
(2.98919 0.0467779 0)
(2.9842 0.0684455 0)
(2.97031 0.0811762 0)
(2.97669 0.075657 0)
(2.97559 0.0408272 0)
(3.01136 0.0148946 0)
(3.01066 -0.0100539 0)
(3.02561 -0.0258451 0)
(3.03946 -0.0315558 0)
(3.05369 -0.0232074 0)
(3.04709 -0.0168667 0)
(3.02861 -0.020003 0)
(3.02616 -0.0375473 0)
(3.00813 -0.0581234 0)
(2.98996 -0.0594688 0)
(3.00525 -0.0572144 0)
(2.98285 -0.0429479 0)
(2.99508 -0.0227073 0)
(2.96605 0.00851472 0)
(2.98004 0.0120499 0)
(3.00294 0.00446324 0)
(3.00872 0.0336268 0)
(3.10458 0.0626624 0)
(2.47345 0.0646274 0)
(1.03089 0.0524685 0)
(0.622305 0.286149 0)
(0.386149 0.384042 0)
(0.237656 0.344643 0)
(0.178024 0.320517 0)
(0.150397 0.327997 0)
(0.119048 0.331661 0)
(0.084443 0.32319 0)
(0.0651498 0.287133 0)
(0.0674444 0.25718 0)
(0.0499836 0.256561 0)
(0.0253682 0.235147 0)
(3.00264 0.000448569 0)
(2.9967 -0.000193371 0)
(2.98889 -0.0139343 0)
(2.98992 -0.0121996 0)
(2.98461 0.0047188 0)
(3.00961 0.0290795 0)
(2.99598 0.0406779 0)
(3.01175 0.0433482 0)
(2.9835 0.0383514 0)
(2.98638 0.0347926 0)
(2.98095 0.0347523 0)
(2.97805 0.0439569 0)
(2.9996 0.0635141 0)
(3.0018 0.0842158 0)
(3.02208 0.0881706 0)
(3.04022 0.0663508 0)
(3.02165 0.0405806 0)
(2.99751 -0.0128783 0)
(3.01898 -0.0243412 0)
(3.00957 -0.0219901 0)
(3.01298 -0.00831611 0)
(3.01662 0.00785894 0)
(3.0176 0.0133467 0)
(3.01705 0.0122021 0)
(3.00436 0.00232956 0)
(2.98732 -0.0108842 0)
(2.98841 -0.0194275 0)
(2.96503 -0.0207788 0)
(2.95935 -0.0241292 0)
(2.93996 -0.0140392 0)
(2.9608 -0.0107933 0)
(2.94798 -0.0142968 0)
(2.93907 -0.0238428 0)
(3.06076 -0.0312163 0)
(3.09698 -0.0894117 0)
(2.56703 -0.0719161 0)
(0.946234 -0.00477475 0)
(0.589623 0.475351 0)
(0.365737 0.511435 0)
(0.255232 0.423381 0)
(0.210558 0.378564 0)
(0.166293 0.382591 0)
(0.120726 0.383095 0)
(0.0666733 0.372866 0)
(0.0529245 0.338893 0)
(0.0612662 0.312788 0)
(0.0548867 0.307129 0)
(0.024914 0.293612 0)
(2.99929 0.0011149 0)
(3.0041 0.00390243 0)
(3.01904 0.00355285 0)
(3.0182 0.0120875 0)
(3.02884 0.0147828 0)
(3.0343 0.0137263 0)
(3.0275 0.00416429 0)
(2.99307 0.00887523 0)
(2.99364 0.00377435 0)
(3.00372 0.0020381 0)
(2.99266 0.000837342 0)
(2.99583 0.000178953 0)
(2.9876 -0.0109711 0)
(3.00248 -0.0170293 0)
(2.98401 -0.0188649 0)
(2.99695 -0.0213112 0)
(2.97988 -0.0274095 0)
(2.98639 -0.0431894 0)
(2.99185 -0.0539382 0)
(2.98676 -0.0518635 0)
(2.97812 -0.0414006 0)
(2.98666 -0.0270112 0)
(2.98113 -0.010586 0)
(2.99892 0.00264688 0)
(2.99797 0.0146757 0)
(2.99752 0.0311586 0)
(2.99327 0.0303912 0)
(2.97777 0.0252943 0)
(2.9709 0.00829083 0)
(2.96257 -0.0119266 0)
(2.97321 -0.0332285 0)
(2.97685 -0.0302382 0)
(2.97526 -0.0211484 0)
(3.01247 -0.0386081 0)
(2.99681 -0.0699341 0)
(2.49955 -0.0626835 0)
(0.853044 0.182748 0)
(0.434382 0.557254 0)
(0.279182 0.551509 0)
(0.253115 0.481673 0)
(0.250278 0.441972 0)
(0.208039 0.437806 0)
(0.144261 0.436817 0)
(0.0698827 0.42632 0)
(0.0470584 0.396581 0)
(0.0590038 0.372747 0)
(0.0615595 0.362513 0)
(0.0228853 0.352109 0)
(3.00141 -0.000728904 0)
(2.99627 -0.00444539 0)
(2.9832 0.00561579 0)
(2.97678 0.0159015 0)
(2.97228 0.0140714 0)
(2.94595 -0.00436472 0)
(2.96833 -0.0177837 0)
(2.96276 -0.0276514 0)
(2.98011 -0.0315921 0)
(2.98696 -0.027995 0)
(2.99498 -0.0240929 0)
(2.99222 -0.0253244 0)
(2.99004 -0.0368339 0)
(3.00632 -0.0459673 0)
(3.0123 -0.0476429 0)
(3.00778 -0.0345484 0)
(2.99973 -0.0169643 0)
(2.96796 0.017041 0)
(2.95772 0.021895 0)
(2.95431 0.010869 0)
(2.96205 -0.00307417 0)
(2.985 -0.0228417 0)
(2.97598 -0.0284758 0)
(2.97719 -0.0257117 0)
(2.99203 -0.00859294 0)
(3.009 0.0195482 0)
(3.03527 0.0315495 0)
(3.03425 0.0307503 0)
(3.03145 0.0246578 0)
(3.01744 0.00567428 0)
(3.01911 -0.0279881 0)
(3.01493 -0.0376412 0)
(3.01024 -0.0328165 0)
(3.02913 -0.0191455 0)
(3.0169 0.00710899 0)
(2.59209 0.0187667 0)
(1.2013 0.422094 0)
(0.44412 0.568749 0)
(0.263741 0.553777 0)
(0.284376 0.519207 0)
(0.297848 0.497913 0)
(0.253702 0.506373 0)
(0.161591 0.50033 0)
(0.0686887 0.483313 0)
(0.0379754 0.456223 0)
(0.0546766 0.434767 0)
(0.063763 0.417466 0)
(0.0216641 0.412228 0)
(3.00149 -0.000323376 0)
(3.00885 -2.13023e-05 0)
(3.01486 0.00464207 0)
(3.02065 0.000291123 0)
(3.00766 -0.00406634 0)
(3.0051 -0.0192557 0)
(2.99457 -0.0241126 0)
(2.99474 -0.0275086 0)
(2.99134 -0.0197887 0)
(2.9829 -0.0092666 0)
(2.98662 -0.0033256 0)
(2.98527 -0.000294571 0)
(2.98517 0.00772789 0)
(2.99042 0.0064728 0)
(3.00405 0.00219097 0)
(2.99739 0.00596101 0)
(3.01537 0.0447318 0)
(3.06668 0.112798 0)
(3.04505 0.134735 0)
(3.02603 0.121845 0)
(2.99271 0.0742579 0)
(2.98782 0.00619071 0)
(2.98247 -0.0320377 0)
(2.99065 -0.034956 0)
(2.99925 -0.02704 0)
(3.00362 -0.0070618 0)
(3.02128 0.00840658 0)
(3.02317 0.0138302 0)
(3.03244 0.0130339 0)
(3.03425 0.00467665 0)
(3.02879 -0.00968138 0)
(3.0287 -0.0189198 0)
(3.02786 -0.0134731 0)
(3.02113 -0.00888237 0)
(3.0334 0.00107661 0)
(2.83664 0.0259535 0)
(1.93113 0.277936 0)
(0.546055 0.587486 0)
(0.368528 0.581851 0)
(0.364568 0.576044 0)
(0.353586 0.580843 0)
(0.288989 0.588838 0)
(0.177456 0.569359 0)
(0.0713859 0.542281 0)
(0.0359005 0.515484 0)
(0.0539449 0.491488 0)
(0.0727603 0.470016 0)
(0.0315492 0.468644 0)
(3.00136 7.74213e-05 0)
(2.99211 0.000805024 0)
(2.9723 -0.00162709 0)
(2.97201 -0.00770801 0)
(2.95238 -0.0202267 0)
(2.99392 -0.0144516 0)
(2.9736 -0.0146907 0)
(2.97894 -0.0130063 0)
(2.98935 -0.00600678 0)
(2.99038 0.00264573 0)
(3.0022 0.0020937 0)
(2.99566 0.000506241 0)
(3.00373 -0.00473154 0)
(2.99965 -0.0177564 0)
(2.99385 -0.0365568 0)
(2.9785 -0.0412292 0)
(3.01905 -0.0341858 0)
(3.03793 -0.0253484 0)
(3.04277 -0.0359139 0)
(3.0784 -0.0313199 0)
(3.00582 -0.0315417 0)
(3.01334 -0.0340346 0)
(3.0239 -0.0305074 0)
(3.01803 -0.0269109 0)
(3.01241 -0.0220187 0)
(3.01167 -0.00897294 0)
(2.99575 0.00252004 0)
(3.0137 0.00749997 0)
(3.00946 0.00639264 0)
(3.02943 0.00602732 0)
(3.03019 0.00775069 0)
(3.02646 0.0113024 0)
(3.02068 0.0159028 0)
(3.02175 0.0129577 0)
(3.00983 0.00330797 0)
(2.97084 -0.0120618 0)
(2.2822 -0.0114759 0)
(0.896564 0.637469 0)
(0.572058 0.673313 0)
(0.466555 0.693529 0)
(0.411637 0.680901 0)
(0.334445 0.671081 0)
(0.215707 0.642597 0)
(0.102789 0.604124 0)
(0.0550132 0.576374 0)
(0.067733 0.549245 0)
(0.0809704 0.528083 0)
(0.0365063 0.524496 0)
(2.99994 0.000356736 0)
(3.00583 -6.04337e-05 0)
(3.02082 -0.00700227 0)
(3.02887 -0.0113763 0)
(3.04601 -0.00620971 0)
(3.02939 0.000127815 0)
(3.03261 0.00790539 0)
(3.03954 0.0131006 0)
(3.03246 0.00965192 0)
(3.01658 0.0104099 0)
(3.00224 0.00346977 0)
(3.00772 -0.00786728 0)
(3.01297 -0.0297179 0)
(2.98921 -0.0378338 0)
(2.95717 -0.0620332 0)
(2.96385 -0.0823193 0)
(2.93344 -0.114055 0)
(2.93853 -0.15687 0)
(2.99286 -0.171469 0)
(2.98951 -0.161326 0)
(2.99524 -0.13031 0)
(3.01842 -0.0994483 0)
(3.0432 -0.0603041 0)
(3.03336 -0.0272558 0)
(3.00684 -0.0034208 0)
(3.00597 0.00523522 0)
(3.0086 0.00608748 0)
(3.0061 0.00665966 0)
(3.00954 0.00752612 0)
(3.00699 0.00975271 0)
(3.01644 0.0139072 0)
(3.01792 0.0242769 0)
(3.03192 0.0364034 0)
(3.04335 0.0393036 0)
(3.09006 0.0259828 0)
(2.99154 0.0120182 0)
(2.48502 -0.0146824 0)
(1.46246 0.561159 0)
(0.65993 0.708612 0)
(0.537464 0.79239 0)
(0.478234 0.78171 0)
(0.40321 0.75982 0)
(0.283807 0.727559 0)
(0.180903 0.668806 0)
(0.116007 0.63724 0)
(0.113304 0.609269 0)
(0.106137 0.59196 0)
(0.0575244 0.591308 0)
(2.99904 -0.000361633 0)
(2.99365 0.0017585 0)
(2.99088 0.00529885 0)
(2.99509 0.00723673 0)
(2.9878 0.0196979 0)
(2.99229 0.021036 0)
(2.98447 0.0225858 0)
(2.97198 0.0183377 0)
(2.99324 0.00874839 0)
(2.99226 -0.00826635 0)
(3.01378 -0.0139078 0)
(3.00215 -0.0128907 0)
(2.98643 -0.00733298 0)
(2.97681 0.000417023 0)
(2.97524 -0.0045636 0)
(2.96422 -0.0171372 0)
(2.976 -0.02888 0)
(2.98305 -0.0294541 0)
(2.99427 -0.0287817 0)
(3.01258 -0.0296423 0)
(3.01532 -0.0234577 0)
(3.02036 -0.0230528 0)
(3.02307 -0.0214077 0)
(3.02217 -0.0053228 0)
(3.0187 0.0113673 0)
(3.00584 0.011187 0)
(2.99345 0.00463659 0)
(2.99336 0.00352667 0)
(2.99917 0.0054309 0)
(3.00644 0.00789267 0)
(3.00449 0.00902796 0)
(3.01292 0.010126 0)
(3.03603 0.00483519 0)
(3.05614 -0.00666839 0)
(3.0478 -0.0173111 0)
(3.03098 0.00134941 0)
(2.81875 0.0173675 0)
(2.01186 0.230487 0)
(0.622291 0.627407 0)
(0.61042 0.835853 0)
(0.546072 0.874741 0)
(0.479996 0.858268 0)
(0.398335 0.811969 0)
(0.311172 0.74745 0)
(0.233562 0.707952 0)
(0.189918 0.685536 0)
(0.141953 0.687957 0)
(0.0878554 0.695824 0)
(3.00134 0.000148895 0)
(3.00668 -6.98796e-05 0)
(3.00468 0.000140631 0)
(2.99943 0.0026554 0)
(3.00061 0.00339274 0)
(2.99596 0.00500547 0)
(2.99813 0.00342367 0)
(3.00079 2.9049e-06 0)
(2.99429 -0.0120104 0)
(2.99448 -0.0398986 0)
(2.99117 -0.0455294 0)
(2.99299 -0.0331314 0)
(2.99705 -0.00592624 0)
(3.00364 0.0133044 0)
(3.00684 0.0203547 0)
(2.99479 0.0271621 0)
(2.99534 0.0366961 0)
(2.97897 0.0457073 0)
(2.97904 0.0688296 0)
(3.0061 0.0876441 0)
(3.00432 0.084696 0)
(3.0121 0.0790492 0)
(3.0213 0.0614198 0)
(3.02384 0.0439698 0)
(3.02173 0.0307495 0)
(2.99383 0.0240016 0)
(2.98751 0.0193872 0)
(2.97879 0.0184886 0)
(2.98805 0.0179391 0)
(2.98885 0.0133405 0)
(3.00957 0.00811326 0)
(3.00283 -0.0055198 0)
(3.03356 -0.0400638 0)
(3.03617 -0.0739247 0)
(3.04086 -0.0710676 0)
(3.01175 -0.0524299 0)
(2.96641 -0.0251391 0)
(2.31421 -0.0456899 0)
(0.867385 0.547321 0)
(0.595677 0.87565 0)
(0.55226 0.952365 0)
(0.557684 0.932579 0)
(0.53645 0.881162 0)
(0.473862 0.826192 0)
(0.391959 0.792232 0)
(0.319348 0.77512 0)
(0.230149 0.812939 0)
(0.165874 0.86561 0)
(3.00905 0.000160145 0)
(2.99506 -0.000940198 0)
(2.99269 -0.00367818 0)
(2.98716 -0.00375482 0)
(2.97795 -0.0106589 0)
(2.98283 -0.0136608 0)
(2.98346 -0.0110133 0)
(2.98914 -0.00823716 0)
(2.9962 -0.0136711 0)
(2.96761 -0.0176548 0)
(2.97031 -0.0173151 0)
(2.98034 -0.0121263 0)
(3.00261 -0.00862109 0)
(3.00366 -0.00825903 0)
(3.00435 -0.0012897 0)
(3.00879 0.0127419 0)
(3.00382 0.035073 0)
(3.02834 0.0395459 0)
(3.01109 0.0381536 0)
(3.0299 0.0380232 0)
(3.04906 0.0344689 0)
(3.04308 0.0361985 0)
(3.00269 0.0290101 0)
(3.02967 0.0216971 0)
(2.97504 0.0186946 0)
(2.97981 0.0214907 0)
(2.96879 0.0254178 0)
(2.9807 0.0289585 0)
(2.99184 0.0262456 0)
(3.00822 0.0147814 0)
(3.00306 0.0137943 0)
(3.02229 0.0102044 0)
(3.0157 0.00970663 0)
(3.00773 0.00932346 0)
(3.0034 0.0074298 0)
(3.00185 0.000862414 0)
(2.99187 0.00115341 0)
(2.5178 -0.0155633 0)
(1.4431 0.621523 0)
(0.594559 0.86348 0)
(0.570228 1.00222 0)
(0.603644 0.983073 0)
(0.640635 0.934182 0)
(0.618382 0.90714 0)
(0.552381 0.893333 0)
(0.460143 0.902008 0)
(0.339402 1.02858 0)
(0.179648 1.21552 0)
(3.00073 -0.000163887 0)
(3.00648 0.00510811 0)
(3.01318 0.00292381 0)
(3.02009 0.000407978 0)
(3.01578 -0.00889299 0)
(3.01066 -0.0201913 0)
(3.01337 -0.0211694 0)
(2.99521 -0.0301999 0)
(2.98688 -0.036376 0)
(2.98722 -0.0204333 0)
(2.98924 0.00351833 0)
(3.00287 0.0181563 0)
(2.99149 0.0249554 0)
(2.9984 0.0230478 0)
(2.98612 0.0107959 0)
(2.985 0.00903977 0)
(2.98695 0.00834171 0)
(2.99938 0.0123813 0)
(3.02137 -0.00298346 0)
(3.04843 -0.027973 0)
(3.0588 -0.0287397 0)
(3.06828 -0.0281267 0)
(3.0457 -0.0272227 0)
(2.99403 -0.019485 0)
(2.99417 -0.00362656 0)
(2.96192 0.00318097 0)
(2.9694 0.00582908 0)
(2.97768 0.0109762 0)
(3.01076 0.0115234 0)
(2.99875 0.0149006 0)
(3.01479 0.0244663 0)
(3.03809 0.0529288 0)
(3.06152 0.0979522 0)
(3.04564 0.117966 0)
(3.01828 0.0988693 0)
(3.01797 0.0629052 0)
(2.97048 0.0213818 0)
(2.77698 0.0447278 0)
(2.00503 0.279956 0)
(0.669416 0.783716 0)
(0.627984 1.04739 0)
(0.654587 1.00829 0)
(0.725324 0.970351 0)
(0.739844 0.955029 0)
(0.700737 0.963226 0)
(0.632461 1.02845 0)
(0.623226 1.2471 0)
(0.746007 1.60397 0)
(2.99651 0.00113602 0)
(2.98532 -0.00491415 0)
(2.98411 -0.0137774 0)
(2.9796 -0.0112513 0)
(2.99469 0.0106431 0)
(2.99424 0.0301072 0)
(3.00628 0.0295878 0)
(3.00001 0.0398126 0)
(3.04372 0.0704863 0)
(3.04766 0.0855485 0)
(3.03729 0.085503 0)
(3.03226 0.0857043 0)
(3.02629 0.0922718 0)
(3.02265 0.0816691 0)
(2.97087 0.0367347 0)
(2.97647 0.00163337 0)
(2.9659 -0.0216783 0)
(2.98315 -0.0233128 0)
(3.01138 -0.0154554 0)
(2.99945 -0.0149526 0)
(3.01154 -0.0167159 0)
(3.00771 -0.025412 0)
(3.00521 -0.0259171 0)
(2.99333 -0.030928 0)
(2.99453 -0.0154492 0)
(2.98507 -0.00886722 0)
(2.98173 -0.0062942 0)
(2.98953 -0.00673891 0)
(2.99511 -0.000879262 0)
(2.99044 0.00350121 0)
(3.00413 -0.00210176 0)
(3.01036 -0.0234876 0)
(3.01809 -0.0157281 0)
(3.03613 -0.016349 0)
(2.99148 -0.00874996 0)
(2.99488 -0.00403135 0)
(3.00099 0.0234884 0)
(3.05685 0.053791 0)
(2.42507 -0.0853611 0)
(1.28405 0.69117 0)
(0.806236 1.10154 0)
(0.73613 1.04353 0)
(0.772278 1.01492 0)
(0.811545 0.992259 0)
(0.804432 1.02953 0)
(0.813611 1.12837 0)
(0.896119 1.28809 0)
(1.2518 1.77064 0)
(2.99943 0.000248633 0)
(3.01621 -0.0077604 0)
(3.04166 0.00555422 0)
(3.00918 0.0054979 0)
(2.99922 -0.00271924 0)
(3.01007 -0.00214421 0)
(3.00975 -9.24034e-05 0)
(2.97858 -0.000924285 0)
(2.92535 0.0271064 0)
(2.9249 0.031628 0)
(2.94142 0.0357897 0)
(2.96056 0.0383957 0)
(2.97281 0.0285183 0)
(2.99369 0.0366603 0)
(2.93633 0.0319862 0)
(2.9403 0.0191559 0)
(2.9485 0.00100557 0)
(2.95629 -0.00384947 0)
(2.95881 0.00537858 0)
(3.00392 0.0264531 0)
(3.0047 0.0400201 0)
(3.01941 0.0407528 0)
(3.01179 0.0336012 0)
(3.0089 0.017265 0)
(3.01729 -0.00481526 0)
(3.01493 -0.0144508 0)
(2.98875 -0.0168611 0)
(2.9887 -0.0122646 0)
(3.00206 -0.00911693 0)
(2.98839 -0.00852949 0)
(3.01747 -0.0193526 0)
(3.0496 -0.0514239 0)
(3.0317 -0.0680117 0)
(3.0346 -0.0660346 0)
(3.02767 -0.0483933 0)
(2.96116 -0.0185719 0)
(3.18449 0.0200364 0)
(3.46077 -0.00377314 0)
(3.05466 0.0350752 0)
(1.93599 0.164383 0)
(1.10333 0.998198 0)
(0.835996 1.14545 0)
(0.811552 1.07179 0)
(0.86873 1.03305 0)
(0.921667 1.08436 0)
(0.969134 1.19896 0)
(1.08995 1.25967 0)
(1.55235 1.65774 0)
(3.00057 5.60226e-05 0)
(2.99374 0.00760019 0)
(2.96882 0.0186575 0)
(3.01137 0.0199639 0)
(2.99569 0.00299402 0)
(2.97477 -0.0300154 0)
(2.98089 -0.0379472 0)
(3.01342 -0.0503023 0)
(3.02911 -0.0771942 0)
(3.04714 -0.0767056 0)
(3.02001 -0.0723923 0)
(3.00564 -0.0636715 0)
(3.00445 -0.062696 0)
(3.01636 -0.038878 0)
(2.9974 0.0132791 0)
(2.99778 0.0311101 0)
(2.99248 0.026137 0)
(2.97616 0.0199341 0)
(2.97375 0.0220847 0)
(2.98343 0.0287742 0)
(3.01612 0.0408837 0)
(3.01614 0.0578305 0)
(3.02531 0.0669918 0)
(3.00756 0.0575343 0)
(3.02328 0.0284493 0)
(3.00136 0.0111904 0)
(2.99353 -0.00421199 0)
(2.98848 -0.00755465 0)
(3.0052 -0.0129877 0)
(3.01274 -0.014487 0)
(3.03441 -0.0064551 0)
(3.03084 0.0045083 0)
(3.03632 0.0139056 0)
(3.01747 0.0151054 0)
(3.01718 0.00959881 0)
(2.98686 -0.00575067 0)
(3.06035 -0.0482286 0)
(3.11826 -0.121799 0)
(3.08664 -0.0290388 0)
(2.44385 0.0118999 0)
(1.56266 0.67506 0)
(0.87713 1.09195 0)
(0.839969 1.055 0)
(0.917765 1.05996 0)
(1.01583 1.11094 0)
(1.09748 1.24973 0)
(1.21614 1.23416 0)
(1.52897 1.46716 0)
(3.00068 0.000678352 0)
(3.00002 9.54892e-06 0)
(3.00084 -0.00808211 0)
(3.00506 -0.0139297 0)
(3.01208 -0.00448597 0)
(2.99067 -0.00433405 0)
(2.9836 -0.0121405 0)
(2.98388 -0.0183987 0)
(2.99739 -0.0175758 0)
(3.01502 -0.00679994 0)
(3.00333 -0.00464672 0)
(3.00336 -0.012061 0)
(2.99217 -0.0306789 0)
(2.99898 -0.0448984 0)
(3.00737 -0.0348829 0)
(3.01643 -0.00681638 0)
(3.00163 0.0094702 0)
(3.00408 0.0135475 0)
(3.00438 0.0117075 0)
(3.00382 0.00197341 0)
(3.01858 -0.00122569 0)
(3.02442 0.00675493 0)
(3.02833 0.0249277 0)
(3.01631 0.0307875 0)
(3.00961 0.0287976 0)
(3.00332 0.0209815 0)
(3.01125 0.013662 0)
(3.01136 -0.00803098 0)
(3.01992 -0.0190348 0)
(3.03554 -0.0229329 0)
(3.02998 -0.018565 0)
(3.03925 -0.00799315 0)
(3.02864 0.00197092 0)
(3.01893 0.00733737 0)
(3.00041 0.0019717 0)
(2.99869 -0.0212378 0)
(2.96651 -0.0678781 0)
(2.94787 -0.0963173 0)
(2.98397 -0.081654 0)
(2.81875 -0.0474687 0)
(2.01586 0.103737 0)
(1.27307 0.995181 0)
(0.958286 1.04833 0)
(0.993844 1.09367 0)
(1.07465 1.13534 0)
(1.17353 1.25471 0)
(1.28173 1.22116 0)
(1.45809 1.30035 0)
(3.00216 -0.000273469 0)
(3.00168 0.000738912 0)
(3.00323 0.00171568 0)
(3.00313 0.00305813 0)
(2.99758 0.00743355 0)
(2.99776 0.0532829 0)
(3.01617 0.08296 0)
(3.05986 0.0850142 0)
(3.0639 0.0640024 0)
(3.03814 0.0321919 0)
(3.02531 0.0187629 0)
(3.01209 -0.000296006 0)
(3.00565 -0.0220024 0)
(2.95161 -0.0265886 0)
(2.9466 -0.0226158 0)
(2.95961 -0.00709471 0)
(2.97781 0.0223422 0)
(3.01724 0.0285216 0)
(3.02537 0.0259108 0)
(3.01804 0.0212983 0)
(3.00906 0.0129201 0)
(3.00669 0.0137794 0)
(3.00676 0.0170661 0)
(3.01039 0.0213481 0)
(3.01216 0.0207419 0)
(3.01647 0.0202113 0)
(3.02354 0.0128686 0)
(3.0366 0.00490563 0)
(3.02574 0.00120186 0)
(3.01712 -0.00448238 0)
(3.0136 -0.00125649 0)
(3.003 0.00265099 0)
(3.00381 0.00885031 0)
(2.99201 0.0162333 0)
(2.98612 0.0197683 0)
(2.96242 0.0152656 0)
(2.95783 -0.00116873 0)
(2.97671 -0.011835 0)
(3.0754 -0.02307 0)
(2.99339 -0.0258606 0)
(2.55696 -0.00457478 0)
(1.77151 0.498017 0)
(1.25893 1.08409 0)
(1.07558 1.17162 0)
(1.15137 1.16782 0)
(1.22097 1.25811 0)
(1.30658 1.24609 0)
(1.44743 1.22864 0)
(3.00149 0.000318875 0)
(3.00259 -0.0016595 0)
(3.0046 -0.000690221 0)
(2.99605 0.00463156 0)
(2.98015 0.00683175 0)
(2.96403 -0.00978031 0)
(2.9505 -0.00329942 0)
(2.90123 0.00862193 0)
(2.91556 0.0157045 0)
(2.9356 0.00834877 0)
(2.95961 -0.0168852 0)
(2.96722 -0.034368 0)
(2.96223 -0.0330124 0)
(2.95209 -0.0075482 0)
(2.95131 0.021843 0)
(2.96023 0.0411845 0)
(2.98616 0.0557887 0)
(3.02567 0.0450927 0)
(3.01736 0.0350963 0)
(3.03118 0.0262053 0)
(3.02349 0.0204598 0)
(3.00816 0.00705848 0)
(3.00364 -0.00319788 0)
(2.9939 -0.0040537 0)
(2.99645 -0.00503705 0)
(3.00092 -0.00608732 0)
(3.01316 -0.00692241 0)
(3.00998 -0.00171722 0)
(3.02788 0.00538275 0)
(3.01257 0.00895441 0)
(2.99606 0.0121191 0)
(2.97712 0.0186236 0)
(2.96528 0.0225714 0)
(2.96596 0.0287236 0)
(2.97052 0.026113 0)
(2.97795 0.0301996 0)
(2.98753 0.0226109 0)
(3.01748 0.0153094 0)
(3.0427 -0.0174701 0)
(3.0153 -0.0126347 0)
(2.93786 0.0065933 0)
(2.25611 0.0561851 0)
(1.64491 0.817862 0)
(1.19826 1.18075 0)
(1.19203 1.23169 0)
(1.25889 1.27788 0)
(1.3476 1.28364 0)
(1.4572 1.25766 0)
(3.00106 0.000244146 0)
(3.00106 -0.00156767 0)
(3.00011 0.00271188 0)
(3.00821 0.00194635 0)
(3.00604 -0.0029062 0)
(3.01736 -0.0491528 0)
(3.0579 -0.0743878 0)
(3.09627 -0.0799243 0)
(3.05293 -0.0551627 0)
(3.02302 -0.0108262 0)
(2.98929 0.00681196 0)
(2.97538 0.0110563 0)
(2.97806 0.0106872 0)
(3.0163 0.00947919 0)
(2.97732 -0.00630041 0)
(2.98008 -0.0156413 0)
(2.98765 -0.015194 0)
(2.97579 -0.00310374 0)
(2.99746 0.00286889 0)
(2.99986 0.0102087 0)
(3.00618 0.00782834 0)
(2.99654 -0.0051099 0)
(2.98267 -0.0204893 0)
(2.98324 -0.0258505 0)
(2.98247 -0.0265258 0)
(2.98536 -0.0263605 0)
(2.9877 -0.0246161 0)
(2.99276 -0.0233881 0)
(3.00113 -0.0131926 0)
(2.99271 -0.000191489 0)
(2.99209 0.0199137 0)
(2.97356 0.0270634 0)
(2.96143 0.0230364 0)
(2.97341 0.0167139 0)
(2.98762 -0.000748728 0)
(2.9927 -0.0110377 0)
(3.01732 -0.0173233 0)
(3.02477 -0.0215649 0)
(3.03973 -0.026022 0)
(3.02721 -0.020476 0)
(3.01374 -0.0244411 0)
(2.73845 -0.0164613 0)
(1.9034 0.281491 0)
(1.48792 1.08623 0)
(1.27703 1.27213 0)
(1.35078 1.32213 0)
(1.41745 1.34749 0)
(1.48746 1.30419 0)
(2.99988 0.000609139 0)
(2.99842 0.00293241 0)
(2.98235 -0.0214809 0)
(2.99105 -0.041614 0)
(2.97957 -0.0578986 0)
(2.97342 -0.0292009 0)
(2.99295 -0.0200478 0)
(3.01247 -0.0135558 0)
(3.00408 -0.0140194 0)
(3.01623 0.00287399 0)
(3.03351 0.0482166 0)
(3.01466 0.0720816 0)
(3.03014 0.0677375 0)
(3.01732 0.0387846 0)
(3.00987 0.0040847 0)
(2.99907 -0.0321891 0)
(3.0005 -0.0485301 0)
(2.98565 -0.0439336 0)
(2.9804 -0.0128567 0)
(2.98432 0.0205207 0)
(2.99131 0.0276429 0)
(2.98903 0.0245869 0)
(2.99241 0.0148571 0)
(2.98454 -0.000315795 0)
(2.98773 -0.012422 0)
(2.98654 -0.0178691 0)
(2.98584 -0.0171781 0)
(2.98332 -0.0156833 0)
(2.98178 -0.0132622 0)
(2.97376 -0.00230132 0)
(2.97644 0.0206376 0)
(2.98784 0.0376044 0)
(2.98682 0.0356069 0)
(3.00351 0.0189071 0)
(2.99689 -0.0015623 0)
(3.02314 -0.0263135 0)
(3.01536 -0.0281726 0)
(3.0016 -0.0155075 0)
(3.00604 -0.00347171 0)
(2.99721 0.00643325 0)
(2.96765 -0.00726635 0)
(2.84544 0.0316295 0)
(2.49166 0.141236 0)
(1.87353 0.637781 0)
(1.29222 1.14642 0)
(1.33852 1.3102 0)
(1.42923 1.38478 0)
(1.54837 1.39905 0)
(3.00033 -0.000619837 0)
(3.01001 -0.00223987 0)
(3.01947 -0.00112842 0)
(3.041 3.83366e-05 0)
(3.11233 0.0123293 0)
(3.06276 0.0240856 0)
(3.11662 0.0302944 0)
(3.03247 0.0188234 0)
(3.0312 -0.00292184 0)
(2.97847 -0.0181296 0)
(3.01737 -0.0297876 0)
(3.04372 -0.0268202 0)
(3.01488 -0.0236097 0)
(2.9937 -0.00464215 0)
(2.98118 0.0239443 0)
(2.97976 0.0451234 0)
(2.98293 0.0444643 0)
(2.97843 0.0308579 0)
(2.98603 0.0280945 0)
(3.00684 0.0371826 0)
(3.0225 0.0529604 0)
(3.0258 0.0504343 0)
(3.02726 0.0336905 0)
(2.99763 0.00773516 0)
(3.00072 -0.0111789 0)
(2.99728 -0.0180475 0)
(2.99526 -0.0156056 0)
(2.98713 -0.0141862 0)
(2.98344 -0.0105008 0)
(2.96467 -0.00695599 0)
(2.97936 -0.00435673 0)
(2.99889 -0.00167854 0)
(2.99102 -0.0025779 0)
(3.01987 0.00125931 0)
(3.03375 0.00255551 0)
(3.03113 0.00485114 0)
(3.02186 0.00427535 0)
(3.02243 0.0163816 0)
(3.00472 0.0282612 0)
(2.97988 0.029489 0)
(2.92664 0.0213585 0)
(3.0332 0.0690978 0)
(2.99232 0.062695 0)
(2.3294 0.0605145 0)
(1.62014 0.823681 0)
(1.44681 1.23742 0)
(1.45718 1.36665 0)
(1.60097 1.38629 0)
(3.00168 -0.00119533 0)
(2.99676 -0.00263978 0)
(2.98985 0.0188993 0)
(2.98935 0.0481666 0)
(2.94658 0.0699061 0)
(2.99229 0.0631735 0)
(2.98622 0.055507 0)
(3.0004 0.0444265 0)
(2.99671 0.0263556 0)
(2.96749 -0.0208017 0)
(2.97091 -0.0940311 0)
(2.9557 -0.116609 0)
(2.98116 -0.092147 0)
(2.99152 -0.0346329 0)
(3.00346 0.00718969 0)
(2.99987 0.0309084 0)
(2.97464 0.0319419 0)
(2.95881 0.0201082 0)
(2.96704 0.0122952 0)
(2.99294 0.00161033 0)
(2.99902 0.00554378 0)
(3.02312 0.00708194 0)
(3.014 0.00281483 0)
(2.99796 -0.00554072 0)
(2.9984 -0.02111 0)
(3.00594 -0.0276399 0)
(2.98823 -0.0357432 0)
(2.98384 -0.0361408 0)
(2.96849 -0.03109 0)
(2.9717 -0.0262702 0)
(2.97082 -0.0302738 0)
(2.98217 -0.042836 0)
(2.98089 -0.0457572 0)
(2.99144 -0.0373966 0)
(3.00877 -0.0225423 0)
(2.99976 -0.00123292 0)
(3.00822 0.0164744 0)
(3.01435 0.0216182 0)
(3.03905 0.0203138 0)
(2.99705 0.0182065 0)
(2.92271 0.015161 0)
(3.07849 0.0106797 0)
(3.342 -0.0793293 0)
(2.93535 -0.0333676 0)
(2.26278 0.274978 0)
(1.68733 0.922686 0)
(1.77861 1.37616 0)
(1.78957 1.53496 0)
(3.00256 0.00147199 0)
(2.99938 -8.37887e-05 0)
(2.99871 -0.0137345 0)
(2.98463 -0.0137605 0)