# Ma  POINT_DATA 302
# x  y  z  Ma
0 0 0 0.1174761750845233
0.02 0 0 0.1174303734648952
0.02 0 1 0.1174303734648952
0 0 1 0.1174761750845233
0.04 0 0 0.117402254010563
0.04 0 1 0.117402254010563
0.06 0 0 0.1172752058768607
0.06 0 1 0.1172752058768607
0.08 0 0 0.1170915040201334
0.08 0 1 0.1170915040201334
0.1 0 0 0.1168626104623546
0.1 0 1 0.1168626104623546
0.12 0 0 0.116630270207949
0.12 0 1 0.116630270207949
0.14 0 0 0.1164333748985165
0.14 0 1 0.1164333748985165
0.16 0 0 0.1162931844337666
0.16 0 1 0.1162931844337666
0.18 0 0 0.1162119444343483
0.18 0 1 0.1162119444343483
0.2 0 0 0.1161710476702124
0.2 0 1 0.1161710476702124
0.22 0 0 0.11614153806061
0.22 0 1 0.11614153806061
0.24 0 0 0.1160897736287878
0.24 0 1 0.1160897736287878
0.26 0 0 0.1159951604654564
0.26 0 1 0.1159951604654564
0.28 0 0 0.1158609994305135
0.28 0 1 0.1158609994305135
0.3 0 0 0.1157039855597526
0.3 0 1 0.1157039855597526
0.32 0 0 0.1155448925125051
0.32 0 0.9999999999999999 0.1155448925125051
0.34 0 0 0.1154029910259707
0.34 0 1 0.1154029910259707
0.36 0 0 0.1152893957801016
0.36 0 1 0.1152893957801016
0.3800000000000001 0 0 0.1152042645739461
0.3800000000000001 0 1 0.1152042645739461
0.4000000000000001 0 0 0.1151405603116986
0.4000000000000001 0 1 0.1151405603116986
0.42 0 0 0.1150874536517044
0.42 0 1 0.1150874536517044
0.44 0 0 0.1150292299524058
0.44 0 1 0.1150292299524058
0.46 0 0 0.1149515488759551
0.46 0 1 0.1149515488759551
0.48 0 0 0.1148499126016412
0.48 0 1 0.1148499126016412
0.5 0 0 0.1147299263360447
0.5 0 1 0.1147299263360447
0.52 0 0 0.1146029064004364
0.52 0 1 0.1146029064004364
0.54 0 0 0.1144797929565701
0.54 0 1 0.1144797929565701
0.5600000000000001 0 0 0.1143651039692539
0.5600000000000001 0 1 0.1143651039692539
0.58 0 0 0.1142546029207731
0.58 0 1 0.1142546029207731
0.6 0 0 0.1141369031158646
0.6 0 1 0.1141369031158646
0.62 0 0 0.11399466379267
0.62 0 1 0.11399466379267
0.64 0 0 0.1138078698166387
0.64 0 1 0.1138078698166387
0.66 0 0 0.1135588715714185
0.66 0 1 0.1135588715714185
0.68 0 0 0.1132359847204626
0.68 0 1 0.1132359847204626
0.6999999999999998 0 0 0.1128347026082421
0.6999999999999998 0 1 0.1128347026082421
0.7200000000000001 0 0 0.1123581084264349
0.7200000000000001 0 1 0.1123581084264349
0.7399999999999999 0 0 0.1118165312069454
0.7399999999999999 0 1 0.1118165312069454
0.7600000000000001 0 0 0.1112247576915743
0.7600000000000001 0 1 0.1112247576915743
0.7799999999999999 0 0 0.1105814453332807
0.7799999999999999 0 1 0.1105814453332807
0.8000000000000002 0 0 0.1098600606552557
0.8000000000000002 0 1 0.1098600606552557
0.82 0 0 0.1090345275482442
0.82 0 1 0.1090345275482442
0.84 0 0 0.108071106988013
0.84 0 1 0.108071106988013
0.86 0 0 0.1069091908761747
0.86 0 1 0.1069091908761747
0.88 0 0 0.1054662253170674
0.88 0 1 0.1054662253170674
0.9 0 0 0.1036095952040551
0.9 0 1 0.1036095952040551
0.92 0 0 0.1011335551024172
0.92 0 1 0.1011335551024172
0.9399999999999999 0 0 0.09759275517252625
0.9399999999999999 0 1 0.09759275517252625
0.96 0 0 0.09233618898647544
0.96 0 1 0.09233618898647544
0.98 0 0 0.08368122247272439
0.98 0 1 0.08368122247272439
1 0 0 0.07922410912529125
1 0 1 0.07922410912529125
1.019011528859521 0.00774587170892227 0 0.08883411056014411
1.019011528859521 0.00774587170892227 1 0.08883411056014411
1.03814300222908 0.01519056678779096 0 0.101030865819317
1.03814300222908 0.01519056678779096 1 0.101030865819317
1.057389649276656 0.02233222874657104 0 0.1079128012742891
1.057389649276656 0.02233222874657104 1 0.1079128012742891
1.076746670449271 0.02916907666285784 0 0.1136877560869124
1.076746670449271 0.02916907666285784 1 0.1136877560869124
1.096209238669852 0.03569940562598783 0 0.1184122891292269
1.096209238669852 0.03569940562598783 1 0.1184122891292269
1.115772500540971 0.04192158716219385 0 0.1224561129732407
1.115772500540971 0.04192158716219385 1 0.1224561129732407
1.135431577555136 0.04783406964069692 0 0.1259005694229078
1.135431577555136 0.04783406964069692 1 0.1259005694229078
1.15518156731135 0.05343537866064074 0 0.128887143759856
1.15518156731135 0.05343537866064074 1 0.128887143759856
1.175017544737629 0.05872411741876205 0 0.1315668666295887
1.175017544737629 0.05872411741876205 1 0.1315668666295887
1.194934563319166 0.06369896705771372 0 0.134022106842307
1.194934563319166 0.06369896705771372 1 0.134022106842307
1.214927656331854 0.06835868699494907 0 0.136263451297591
1.214927656331854 0.06835868699494907 1 0.136263451297591
1.234991838080839 0.07270211523208703 0 0.1382903998081062
1.234991838080839 0.07270211523208703 1 0.1382903998081062
1.255122105143807 0.07672816864468057 0 0.1401176508411084
1.255122105143807 0.07672816864468057 1 0.1401176508411084
1.275313437618693 0.08043584325231667 0 0.1417603122957298
1.275313437618693 0.08043584325231667 1 0.1417603122957298
1.295560800375496 0.08382421446897959 0 0.14323479143256
1.295560800375496 0.08382421446897959 1 0.14323479143256
1.315859144311896 0.08689243733361551 0 0.1445581521131073
1.315859144311896 0.08689243733361551 0.9999999999999999 0.1445581521131073
1.336203407612353 0.08963974672084118 0 0.1457405810449726
1.336203407612353 0.08963974672084118 1 0.1457405810449726
1.356588517010376 0.09206545753174478 0 0.1467836924855811
1.356588517010376 0.09206545753174478 1 0.1467836924855811
1.377009389053645 0.09416896486472859 0 0.1477015858372579
1.377009389053645 0.09416896486472859 1 0.1477015858372579
1.39746093137168 0.09594974416635349 0 0.1485490764097078
1.39746093137168 0.09594974416635349 1 0.1485490764097078
1.417938043945728 0.09740735136214917 0 0.1493371449352695
1.417938043945728 0.09740735136214917 1 0.1493371449352695
1.438435620380559 0.09854142296735158 0 0.1499548690846134
1.438435620380559 0.09854142296735158 1 0.1499548690846134
1.458948549177853 0.0993516761775457 0 0.1502975700861824
1.458948549177853 0.0993516761775457 1 0.1502975700861824
1.479471715010857 0.09983790893918965 0 0.1503965808404393
1.479471715010857 0.09983790893918965 1 0.1503965808404393
1.5 0.1000000000000001 0 0.1503315867672377
1.5 0.1000000000000001 1 0.1503315867672377
1.520528284989143 0.09983790893918965 0 0.150132795365014
1.520528284989143 0.09983790893918965 1 0.150132795365014
1.541051450822147 0.0993516761775457 0 0.1498048327826461
1.541051450822147 0.0993516761775457 1 0.1498048327826461
1.561564379619441 0.09854142296735158 0 0.1493522123843501
1.561564379619441 0.09854142296735158 1 0.1493522123843501
1.582061956054272 0.09740735136214917 0 0.1487803828410119
1.582061956054272 0.09740735136214917 1 0.1487803828410119
1.60253906862832 0.09594974416635349 0 0.1480784963791843
1.60253906862832 0.09594974416635349 1 0.1480784963791843
1.622990610946355 0.09416896486472837 0 0.1472290703744739
1.622990610946355 0.09416896486472837 1 0.1472290703744739
1.643411482989624 0.09206545753174478 0 0.1462328919221211
1.643411482989624 0.09206545753174478 1 0.1462328919221211
1.663796592387647 0.08963974672084141 0 0.1451041747525427
1.663796592387647 0.08963974672084141 1 0.1451041747525427
1.684140855688104 0.08689243733361551 0 0.1438548423679654
1.684140855688104 0.08689243733361551 1 0.1438548423679654
1.704439199624504 0.08382421446897959 0 0.1424875583905224
1.704439199624504 0.08382421446897959 1 0.1424875583905224
1.724686562381307 0.08043584325231667 0 0.140990468698755
1.724686562381307 0.08043584325231667 1 0.140990468698755
1.744877894856193 0.07672816864468035 0 0.1393355849529334
1.744877894856192 0.07672816864468035 1 0.1393355849529334
1.76500816191916 0.07270211523208703 0 0.1374889908311731
1.765008161919161 0.07270211523208703 1 0.1374889908311731
1.785072343668146 0.06835868699494907 0 0.1354201006010128
1.785072343668146 0.06835868699494907 1 0.1354201006010128
1.805065436680834 0.06369896705771372 0 0.1331108636891438
1.805065436680834 0.06369896705771372 1 0.1331108636891438
1.824982455262371 0.05872411741876182 0 0.1305435646891667
1.824982455262371 0.05872411741876182 1 0.1305435646891667
1.84481843268865 0.05343537866064074 0 0.127675406371789
1.84481843268865 0.05343537866064074 1 0.127675406371789
1.864568422444864 0.04783406964069692 0 0.1244557100916563
1.864568422444864 0.04783406964069692 1 0.1244557100916563
1.884227499459029 0.04192158716219363 0 0.1208194819713412
1.884227499459029 0.04192158716219363 1 0.1208194819713412
1.903790761330148 0.03569940562598806 0 0.1166387332385402
1.903790761330148 0.03569940562598806 1 0.1166387332385402
1.923253329550729 0.02916907666285784 0 0.111749674718173
1.923253329550729 0.02916907666285784 1 0.111749674718173
1.942610350723344 0.02233222874657081 0 0.1056601591246124
1.942610350723344 0.02233222874657081 1 0.1056601591246124
1.96185699777092 0.01519056678779096 0 0.09847898420024262
1.96185699777092 0.01519056678779096 1 0.09847898420024262
1.980988471140479 0.00774587170892227 0 0.08910985866971326
1.980988471140479 0.00774587170892227 1 0.08910985866971326
2 0 0 0.08161791655226543
2 0 1 0.08161791655226543
2.02 0 0 0.08504502099117921
2.02 0 1 0.08504502099117921
2.04 0 0 0.0921233397690035
2.04 0 1 0.0921233397690035
2.06 0 0 0.09555993887430234
2.06 0 1 0.09555993887430234
2.08 0 0 0.09830866955925713
2.08 0 1 0.09830866955925713
2.1 0 0 0.1002654679808323
2.1 0 1 0.1002654679808323
2.12 0 0 0.1017600423024916
2.12 0 1 0.1017600423024916
2.14 0 0 0.1029160738744528
2.14 0 1 0.1029160738744528
2.16 0 0 0.1038519374709493
2.16 0 1 0.1038519374709493
2.18 0 0 0.1046408097145099
2.18 0 1 0.1046408097145099
2.2 0 0 0.1053168342032497
2.2 0 1 0.1053168342032497
2.22 0 0 0.1059020896358938
2.22 0 1 0.1059020896358938
2.24 0 0 0.1064139640194987
2.24 0 1 0.1064139640194987
2.26 0 0 0.1068588948138139
2.26 0 1 0.1068588948138139
2.28 0 0 0.1072454347092143
2.28 0 1 0.1072454347092143
2.3 0 0 0.1075908740890228
2.3 0 1 0.1075908740890228
2.32 0 0 0.1079079282503355
2.32 0 0.9999999999999999 0.1079079282503356
2.34 0 0 0.1082031387828568
2.34 0 1 0.1082031387828568
2.36 0 0 0.1084795856532771
2.36 0 1 0.1084795856532771
2.38 0 0 0.1087333080488502
2.38 0 1 0.1087333080488502
2.4 0 0 0.1089615591228646
2.4 0 1 0.1089615591228646
2.42 0 0 0.109165378914043
2.42 0 1 0.109165378914043
2.44 0 0 0.1093444907434572
2.44 0 1 0.1093444907434572
2.46 0 0 0.1094987261066614
2.46 0 1 0.1094987261066614
2.48 0 0 0.1096316748003486
2.48 0 1 0.1096316748003486
2.5 0 0 0.1097490125801675
2.5 0 1 0.1097490125801675
2.52 0 0 0.1098537749921141
2.52 0 1 0.1098537749921141
2.54 0 0 0.1099489316193902
2.54 0 1 0.1099489316193902
2.56 0 0 0.1100429152100385
2.56 0 1 0.1100429152100385
2.58 0 0 0.1101422223350825
2.58 0 1 0.1101422223350825
2.6 0 0 0.1102402806865245
2.6 0 1 0.1102402806865245
2.62 0 0 0.1103284517082555
2.62 0 1 0.1103284517082555
2.64 0 0 0.1104061999865616
2.64 0 1 0.1104061999865616
2.66 0 0 0.1104744635858889
2.66 0 1 0.1104744635858889
2.68 0 0 0.1105328142457586
2.68 0 1 0.1105328142457586
2.7 0 0 0.1105757140088574
2.7 0 1 0.1105757140088574
2.72 0 0 0.1106000725805717
2.72 0 1 0.1106000725805717
2.74 0 0 0.1106147331850359
2.74 0 1 0.1106147331850359
2.76 0 0 0.1106274276810712
2.76 0 1 0.1106274276810712
2.78 0 0 0.1106381564281877
2.78 0 1 0.1106381564281877
2.8 0 0 0.1106447508282102
2.8 0 1 0.1106447508282102
2.82 0 0 0.1106478353865428
2.82 0 1 0.1106478353865428
2.84 0 0 0.1106515615855952
2.84 0 1 0.1106515615855952
2.86 0 0 0.1106570995368873
2.86 0 1 0.1106570995368873
2.88 0 0 0.1106619037206742
2.88 0 1 0.1106619037206742
2.9 0 0 0.1106625726042604
2.9 0 1 0.1106625726042604
2.92 0 0 0.1106540184190627
2.92 0 1 0.1106540184190627
2.94 0 0 0.1106454785462634
2.94 0 1 0.1106454785462634
2.96 0 0 0.1106019750905932
2.96 0 1 0.1106019750905932
2.98 0 0 0.1106657053421038
2.98 0 1 0.1106657053421038
3 0 0 0.1107717953944187
3 0 1 0.1107717953944187
