# Ma  POINT_DATA 302
# x  y  z  Ma
0 1 0 0.1173683720506427
0 1 1 0.1173683720506427
0.02 1 1 0.117218082009346
0.02 1 0 0.117218082009346
0.04 1 1 0.1172178089378444
0.04 1 0 0.1172178089378444
0.06 1 1 0.1171951771864042
0.06 1 0 0.1171951771864042
0.08 1 1 0.1172109857512108
0.08 1 0 0.1172109857512108
0.1 1 1 0.1172354215376893
0.1 1 0 0.1172354215376893
0.12 1 1 0.1172595044444886
0.12 1 0 0.1172595044444886
0.14 1 1 0.117286409573093
0.14 1 0 0.117286409573093
0.16 1 1 0.11731880619416
0.16 0.9999999999999999 0 0.11731880619416
0.18 1 1 0.1173571643032679
0.18 1 0 0.1173571643032679
0.2 1 1 0.117401244711047
0.2 1 0 0.117401244711047
0.22 1 1 0.1174505568982654
0.22 1 0 0.1174505568982654
0.24 1 1 0.1175035376193624
0.24 1 0 0.1175035376193624
0.26 1 1 0.1175584481853257
0.26 1 0 0.1175584481853257
0.28 1 1 0.1176147249683843
0.28 1 0 0.1176147249683843
0.3 1 1 0.1176715723119161
0.3 1 0 0.1176715723119161
0.32 1 1 0.1177285648968666
0.32 1 0 0.1177285648968666
0.34 1 1 0.1177855849748489
0.34 1 0 0.1177855849748489
0.36 1 1 0.1178414914624847
0.36 1 0 0.1178414914624847
0.3800000000000001 1 1 0.1178960029084193
0.3800000000000001 1 0 0.1178960029084193
0.4000000000000001 1 1 0.1179506455839269
0.4000000000000001 1 0 0.1179506455839269
0.42 1 1 0.1180071806416981
0.42 1 0 0.1180071806416981
0.44 1 1 0.1180664874970742
0.44 1 0 0.1180664874970742
0.46 1 1 0.1181283894915233
0.46 1 0 0.1181283894915233
0.48 1 1 0.1181923957487858
0.48 1 0 0.1181923957487858
0.5 1 1 0.1182588701232936
0.5 1 0 0.1182588701232936
0.52 1 1 0.1183289625153061
0.52 1 0 0.1183289625153061
0.54 1 1 0.1184043928832518
0.54 1 0 0.1184043928832518
0.5600000000000001 1 1 0.1184872300726202
0.5600000000000001 1 0 0.1184872300726202
0.58 1 1 0.1185791425368125
0.58 1 0 0.1185791425368125
0.6 1 1 0.1186806446798628
0.6 1 0 0.1186806446798628
0.62 1 1 0.1187905566633387
0.62 1 0 0.1187905566633387
0.64 1 1 0.1189067509503367
0.64 1 0 0.1189067509503367
0.66 1 1 0.119027968484586
0.66 1 0 0.119027968484586
0.68 1 1 0.119155235081948
0.68 1 0 0.119155235081948
0.6999999999999998 1 1 0.1192904845414873
0.6999999999999998 1 0 0.1192904845414873
0.7200000000000001 1 1 0.119434184992299
0.7200000000000001 1 0 0.119434184992299
0.7399999999999999 1 1 0.1195849749995024
0.7399999999999999 1 0 0.1195849749995024
0.7600000000000001 1 1 0.1197410506751439
0.7600000000000001 1 0 0.1197410506751439
0.7799999999999999 1 1 0.1199021153340972
0.7799999999999999 1 0 0.1199021153340972
0.8000000000000002 1 1 0.1200681671011674
0.8000000000000002 1 0 0.1200681671011674
0.82 1 1 0.1202371572957583
0.82 1 0 0.1202371572957583
0.84 1 1 0.1204068929792055
0.84 1 0 0.1204068929792055
0.86 1 1 0.1205766943347001
0.86 1 0 0.1205766943347001
0.88 1 1 0.1207467252432097
0.88 1 0 0.1207467252432097
0.9 1 1 0.1209177131748449
0.9 1 0 0.1209177131748449
0.92 1 1 0.1210908899328915
0.92 1 0 0.1210908899328915
0.9399999999999999 1 1 0.1212677298745486
0.9399999999999999 1 0 0.1212677298745486
0.96 1 1 0.1214491426090465
0.96 1 0 0.1214491426090465
0.98 1 1 0.1216345226383185
0.98 1 0 0.1216345226383185
1 1 1 0.1218216414689008
1 1 0 0.1218216414689008
1.02 1 1 0.1220072859000443
1.02 1 0 0.1220072859000443
1.04 1 1 0.1221879774643799
1.04 1 0 0.1221879774643799
1.06 1 1 0.1223618480577626
1.06 1 0 0.1223618480577626
1.08 1 1 0.1225286197747537
1.08 1 0 0.1225286197747537
1.1 1 1 0.1226883879848788
1.1 1 0 0.1226883879848788
1.12 1 1 0.1228416519624691
1.12 1 0 0.1228416519624691
1.14 1 1 0.1229888538686914
1.14 1 0 0.1229888538686914
1.16 1 1 0.1231301233444874
1.16 0.9999999999999999 0 0.1231301233444874
1.18 1 1 0.1232654901393548
1.18 1 0 0.1232654901393548
1.2 1 1 0.1233948662800854
1.2 1 0 0.1233948662800854
1.22 1 1 0.1235181430392387
1.22 1 0 0.1235181430392387
1.24 1 1 0.1236353212800665
1.24 1 0 0.1236353212800665
1.26 1 1 0.123746093457148
1.26 1 0 0.123746093457148
1.28 1 1 0.12384964431866
1.28 1 0 0.12384964431866
1.3 1 1 0.1239448616141749
1.3 1 0 0.1239448616141749
1.32 1 1 0.1240305645327397
1.32 1 0 0.1240305645327397
1.34 1 1 0.1241058226010791
1.34 1 0 0.1241058226010791
1.36 1 1 0.1241704796032424
1.36 1 0 0.1241704796032424
1.38 1 1 0.1242247735180423
1.38 1 0 0.1242247735180423
1.4 1 1 0.1242686455095752
1.4 1 0 0.1242686455095752
1.42 1 1 0.1243004403655671
1.42 1 0 0.1243004403655671
1.44 1 1 0.1243187780356023
1.44 1 0 0.1243187780356023
1.46 1 1 0.1243236923585107
1.46 1 0 0.1243236923585107
1.48 1 1 0.1243157599871499
1.48 1 0 0.1243157599871499
1.5 1 1 0.1242962151269584
1.5 1 0 0.1242962151269584
1.52 1 1 0.1242661746611662
1.52 1 0 0.1242661746611662
1.54 1 1 0.1242261867840986
1.54 1 0 0.1242261867840986
1.56 1 1 0.1241748468308696
1.56 1 0 0.1241748468308696
1.58 1 1 0.1241103710157061
1.58 1 0 0.1241103710157061
1.6 1 1 0.1240333992436781
1.6 1 0 0.1240333992436781
1.62 1 1 0.1239452538630016
1.62 1 0 0.1239452538630016
1.64 1 1 0.1238456078197769
1.64 1 0 0.1238456078197769
1.66 1 1 0.1237344920261237
1.66 1 0 0.1237344920261237
1.68 1 1 0.1236132410978725
1.68 1 0 0.1236132410978725
1.7 1 1 0.1234834877591617
1.7 1 0 0.1234834877591617
1.72 1 1 0.1233459729381982
1.72 1 0 0.1233459729381982
1.74 1 1 0.1232003823089426
1.74 1 0 0.1232003823089426
1.76 1 1 0.1230461884862828
1.76 1 0 0.1230461884862828
1.78 1 1 0.1228831974315819
1.78 1 0 0.1228831974315819
1.8 1 1 0.122711548025898
1.8 1 0 0.122711548025898
1.82 1 1 0.1225316684846589
1.82 1 0 0.1225316684846589
1.84 1 1 0.1223445440159758
1.84 1 0 0.1223445440159758
1.86 1 1 0.122151179764435
1.86 1 0 0.122151179764435
1.88 1 1 0.1219526878766016
1.88 1 0 0.1219526878766016
1.9 1 1 0.1217503067559345
1.9 1 0 0.1217503067559345
1.92 1 1 0.1215451682907975
1.92 1 0 0.1215451682907975
1.94 1 1 0.1213382704862888
1.94 1 0 0.1213382704862888
1.96 1 1 0.1211307142451129
1.96 1 0 0.1211307142451129
1.98 1 1 0.1209228369856362
1.98 1 0 0.1209228369856362
2 1 1 0.1207158222073241
2 1 0 0.1207158222073241
2.02 1 1 0.1205103789131989
2.02 1 0 0.1205103789131989
2.04 1 1 0.1203054374642381
2.04 1 0 0.1203054374642381
2.06 1 1 0.120100816042497
2.06 1 0 0.120100816042497
2.08 1 1 0.1198969806546479
2.08 1 0 0.1198969806546479
2.1 1 1 0.1196940128574188
2.1 1 0 0.1196940128574188
2.12 1 1 0.1194910858359908
2.12 1 0 0.1194910858359908
2.14 1 1 0.1192883166072857
2.14 1 0 0.1192883166072857
2.16 1 1 0.1190884126062109
2.16 0.9999999999999999 0 0.1190884126062109
2.18 1 1 0.118890603821327
2.18 1 0 0.118890603821327
2.2 1 1 0.1186919101000135
2.2 1 0 0.1186919101000135
2.22 1 1 0.1184926437529921
2.22 1 0 0.1184926437529921
2.24 1 1 0.1182935210237946
2.24 1 0 0.1182935210237946
2.26 1 1 0.1180961007514125
2.26 1 0 0.1180961007514125
2.28 1 1 0.1179033896319884
2.28 1 0 0.1179033896319884
2.3 1 1 0.1177186667831413
2.3 1 0 0.1177186667831413
2.32 1 1 0.1175448335601184
2.32 1 0 0.1175448335601184
2.34 1 1 0.1173826432643735
2.34 1 0 0.1173826432643735
2.36 1 1 0.1172281972573458
2.36 1 0 0.1172281972573458
2.38 1 1 0.117076656791883
2.38 1 0 0.117076656791883
2.4 1 1 0.1169263550054889
2.4 1 0 0.1169263550054889
2.42 1 1 0.1167776333680915
2.42 1 0 0.1167776333680915
2.44 1 1 0.1166321535947667
2.44 1 0 0.1166321535947667
2.46 1 1 0.1164913526593651
2.46 1 0 0.1164913526593651
2.48 1 1 0.1163553049750605
2.48 1 0 0.1163553049750605
2.5 1 1 0.1162238907101031
2.5 1 0 0.1162238907101031
2.52 1 1 0.1160979468467324
2.52 1 0 0.1160979468467324
2.54 1 1 0.1159787564774303
2.54 1 0 0.1159787564774303
2.56 1 1 0.115866875977691
2.56 1 0 0.115866875977691
2.58 1 1 0.1157618557483786
2.58 1 0 0.1157618557483786
2.6 1 1 0.1156627680238423
2.6 1 0 0.1156627680238423
2.62 1 1 0.1155689179949315
2.62 1 0 0.1155689179949315
2.64 1 1 0.1154800914743879
2.64 1 0 0.1154800914743879
2.66 1 1 0.1153961903287837
2.66 1 0 0.1153961903287837
2.68 1 1 0.115317060797319
2.68 1 0 0.115317060797319
2.7 1 1 0.1152426522161136
2.7 1 0 0.1152426522161136
2.72 1 1 0.1151730437578856
2.72 1 0 0.1151730437578856
2.74 1 1 0.1151084602928552
2.74 1 0 0.1151084602928552
2.76 1 1 0.1150492044124067
2.76 1 0 0.1150492044124067
2.78 1 1 0.1149953514939863
2.78 1 0 0.1149953514939863
2.8 1 1 0.1149469249893807
2.8 1 0 0.1149469249893807
2.82 1 1 0.114904471584786
2.82 1 0 0.114904471584786
2.84 1 1 0.1148695244913743
2.84 1 0 0.1148695244913743
2.859999999999999 1 1 0.1148443237519638
2.859999999999999 1 0 0.1148443237519638
2.88 1 1 0.1148309869402938
2.88 1 0 0.1148309869402938
2.9 1 1 0.1148311095061395
2.9 1 0 0.1148311095061395
2.92 1 1 0.1148510974247935
2.92 1 0 0.1148510974247935
2.94 1 1 0.1149115657193055
2.94 1 0 0.1149115657193055
2.96 1 1 0.1150215710513519
2.96 1 0 0.1150215710513519
2.98 1 1 0.1152251182546838
2.98 1 0 0.1152251182546838
3 1 1 0.1153627331390782
3 1 0 0.1153627331390782
