# p  POINT_DATA 302
# x  y  z  p
0 0 0 80783.24211565865
0.02 0 0 80781.14967026775
0.02 0 1 80781.14967026775
0 0 1 80783.24211565865
0.04 0 0 80778.59837653997
0.04 0 1 80778.59837653997
0.06 0 0 80777.00700910874
0.06 0 1 80777.00700910874
0.08 0 0 80774.65396909513
0.08 0 1 80774.65396909513
0.1 0 0 80772.28657004586
0.1 0 1 80772.28657004586
0.12 0 0 80770.13648985277
0.12 0 1 80770.13648985277
0.14 0 0 80767.77946248086
0.14 0 1 80767.77946248086
0.16 0 0 80765.46337424498
0.16 0 1 80765.46337424498
0.18 0 0 80763.35356850497
0.18 0 1 80763.35356850497
0.2 0 0 80760.70562766066
0.2 0 1 80760.70562766066
0.22 0 0 80757.27941033427
0.22 0 1 80757.27941033427
0.24 0 0 80753.0167084125
0.24 0 1 80753.0167084125
0.26 0 0 80748.30147457639
0.26 0 1 80748.30147457639
0.28 0 0 80743.46287174012
0.28 0 1 80743.46287174012
0.3 0 0 80738.54103025454
0.3 0 1 80738.54103025454
0.32 0 0 80733.44296821296
0.32 0 0.9999999999999999 80733.44296821296
0.34 0 0 80728.19222551465
0.34 0 1 80728.19222551465
0.36 0 0 80723.02537832095
0.36 0 1 80723.02537832095
0.3800000000000001 0 0 80717.91510725424
0.3800000000000001 0 1 80717.91510725424
0.4000000000000001 0 0 80712.88025641651
0.4000000000000001 0 1 80712.88025641651
0.42 0 0 80707.74910113862
0.42 0 1 80707.74910113862
0.44 0 0 80702.29361447851
0.44 0 1 80702.29361447851
0.46 0 0 80696.55041924494
0.46 0 1 80696.55041924494
0.48 0 0 80690.60061593403
0.48 0 1 80690.60061593403
0.5 0 0 80684.58645933689
0.5 0 1 80684.58645933689
0.52 0 0 80678.57602724075
0.52 0 1 80678.57602724075
0.54 0 0 80672.70122118757
0.54 0 1 80672.70122118757
0.5600000000000001 0 0 80667.09000647432
0.5600000000000001 0 1 80667.09000647432
0.58 0 0 80661.70944488011
0.58 0 1 80661.70944488011
0.6 0 0 80656.4682759573
0.6 0 1 80656.4682759573
0.62 0 0 80651.28911093986
0.62 0 1 80651.28911093986
0.64 0 0 80646.12949311809
0.64 0 1 80646.12949311809
0.66 0 0 80641.04502459642
0.66 0 1 80641.04502459642
0.68 0 0 80636.17877094386
0.68 0 1 80636.17877094386
0.6999999999999998 0 0 80631.68853937942
0.6999999999999998 0 1 80631.68853937942
0.7200000000000001 0 0 80627.72137561804
0.7200000000000001 0 1 80627.72137561804
0.7399999999999999 0 0 80624.58304968593
0.7399999999999999 0 1 80624.58304968593
0.7600000000000001 0 0 80622.71489944938
0.7600000000000001 0 1 80622.71489944938
0.7799999999999999 0 0 80622.20275014197
0.7799999999999999 0 1 80622.20275014197
0.8000000000000002 0 0 80622.96132381905
0.8000000000000002 0 1 80622.96132381905
0.82 0 0 80625.27734539914
0.82 0 1 80625.27734539914
0.84 0 0 80629.59771278137
0.84 0 1 80629.59771278137
0.86 0 0 80636.39857787098
0.86 0 1 80636.39857787098
0.88 0 0 80646.48439065812
0.88 0 1 80646.48439065812
0.9 0 0 80660.97139583639
0.9 0 1 80660.97139583639
0.92 0 0 80681.61844399798
0.92 0 1 80681.61844399798
0.9399999999999999 0 0 80709.76098744123
0.9399999999999999 0 1 80709.76098744123
0.96 0 0 80747.10774527484
0.96 0 1 80747.10774527484
0.98 0 0 80725.71406126759
0.98 0 1 80725.71406126759
1 0 0 80850.60603089424
1 0 1 80850.60603089424
1.019011528859521 0.00774587170892227 0 80871.83110256729
1.019011528859521 0.00774587170892227 1 80871.83110256729
1.03814300222908 0.01519056678779096 0 80669.36755827826
1.03814300222908 0.01519056678779096 1 80669.36755827826
1.057389649276656 0.02233222874657104 0 80567.13477645753
1.057389649276656 0.02233222874657104 1 80567.13477645753
1.076746670449271 0.02916907666285784 0 80483.86034600425
1.076746670449271 0.02916907666285784 1 80483.86034600425
1.096209238669852 0.03569940562598783 0 80414.25457312251
1.096209238669852 0.03569940562598783 1 80414.25457312251
1.115772500540971 0.04192158716219385 0 80352.08816029642
1.115772500540971 0.04192158716219385 1 80352.08816029642
1.135431577555136 0.04783406964069692 0 80295.97742337061
1.135431577555136 0.04783406964069692 1 80295.97742337061
1.15518156731135 0.05343537866064074 0 80245.77450718718
1.15518156731135 0.05343537866064074 1 80245.77450718718
1.175017544737629 0.05872411741876205 0 80200.31899974401
1.175017544737629 0.05872411741876205 1 80200.31899974401
1.194934563319166 0.06369896705771372 0 80158.87436461801
1.194934563319166 0.06369896705771372 1 80158.87436461801
1.214927656331854 0.06835868699494907 0 80121.20788129067
1.214927656331854 0.06835868699494907 1 80121.20788129067
1.234991838080839 0.07270211523208703 0 80086.96066908679
1.234991838080839 0.07270211523208703 1 80086.96066908679
1.255122105143807 0.07672816864468057 0 80055.86328263688
1.255122105143807 0.07672816864468057 1 80055.86328263688
1.275313437618693 0.08043584325231667 0 80027.81936259691
1.275313437618693 0.08043584325231667 1 80027.81936259691
1.295560800375496 0.08382421446897959 0 80002.84293548693
1.295560800375496 0.08382421446897959 1 80002.84293548693
1.315859144311896 0.08689243733361551 0 79980.92168826272
1.315859144311896 0.08689243733361551 0.9999999999999999 79980.92168826272
1.336203407612353 0.08963974672084118 0 79961.97191334688
1.336203407612353 0.08963974672084118 1 79961.97191334688
1.356588517010376 0.09206545753174478 0 79945.8824558302
1.356588517010376 0.09206545753174478 1 79945.8824558302
1.377009389053645 0.09416896486472859 0 79933.16590360765
1.377009389053645 0.09416896486472859 1 79933.16590360765
1.39746093137168 0.09594974416635349 0 79924.14065631428
1.39746093137168 0.09594974416635349 1 79924.14065631428
1.417938043945728 0.09740735136214917 0 79918.74286129091
1.417938043945728 0.09740735136214917 1 79918.74286129091
1.438435620380559 0.09854142296735158 0 79916.17738901748
1.438435620380559 0.09854142296735158 1 79916.17738901748
1.458948549177853 0.0993516761775457 0 79913.63446300702
1.458948549177853 0.0993516761775457 1 79913.63446300702
1.479471715010857 0.09983790893918965 0 79910.55763308887
1.479471715010857 0.09983790893918965 1 79910.55763308887
1.5 0.1000000000000001 0 79908.72216291109
1.5 0.1000000000000001 1 79908.72216291109
1.520528284989143 0.09983790893918965 0 79910.09809425494
1.520528284989143 0.09983790893918965 1 79910.09809425494
1.541051450822147 0.0993516761775457 0 79916.6485107265
1.541051450822147 0.0993516761775457 1 79916.6485107265
1.561564379619441 0.09854142296735158 0 79928.87665299917
1.561564379619441 0.09854142296735158 1 79928.87665299917
1.582061956054272 0.09740735136214917 0 79946.20696004819
1.582061956054272 0.09740735136214917 1 79946.20696004819
1.60253906862832 0.09594974416635349 0 79964.87808662876
1.60253906862832 0.09594974416635349 1 79964.87808662876
1.622990610946355 0.09416896486472837 0 79983.29146740888
1.622990610946355 0.09416896486472837 1 79983.29146740888
1.643411482989624 0.09206545753174478 0 80003.12837920824
1.643411482989624 0.09206545753174478 1 80003.12837920824
1.663796592387647 0.08963974672084141 0 80024.80991097569
1.663796592387647 0.08963974672084141 1 80024.80991097569
1.684140855688104 0.08689243733361551 0 80049.0405053389
1.684140855688104 0.08689243733361551 1 80049.0405053389
1.704439199624504 0.08382421446897959 0 80076.14415448981
1.704439199624504 0.08382421446897959 1 80076.14415448981
1.724686562381307 0.08043584325231667 0 80105.76276059111
1.724686562381307 0.08043584325231667 1 80105.76276059111
1.744877894856193 0.07672816864468035 0 80137.52087395363
1.744877894856192 0.07672816864468035 1 80137.52087395362
1.76500816191916 0.07270211523208703 0 80171.45352319743
1.765008161919161 0.07270211523208703 1 80171.45352319743
1.785072343668146 0.06835868699494907 0 80207.78588149237
1.785072343668146 0.06835868699494907 1 80207.78588149237
1.805065436680834 0.06369896705771372 0 80246.75855937778
1.805065436680834 0.06369896705771372 1 80246.75855937778
1.824982455262371 0.05872411741876182 0 80288.20836370537
1.824982455262371 0.05872411741876182 1 80288.20836370537
1.84481843268865 0.05343537866064074 0 80332.60101603562
1.84481843268865 0.05343537866064074 1 80332.60101603562
1.864568422444864 0.04783406964069692 0 80380.64141311556
1.864568422444864 0.04783406964069692 1 80380.64141311556
1.884227499459029 0.04192158716219363 0 80432.75624082529
1.884227499459029 0.04192158716219363 1 80432.75624082529
1.903790761330148 0.03569940562598806 0 80489.60319984666
1.903790761330148 0.03569940562598806 1 80489.60319984666
1.923253329550729 0.02916907666285784 0 80552.53132986752
1.923253329550729 0.02916907666285784 1 80552.53132986752
1.942610350723344 0.02233222874657081 0 80621.5271725459
1.942610350723344 0.02233222874657081 1 80621.5271725459
1.96185699777092 0.01519056678779096 0 80696.42726246976
1.96185699777092 0.01519056678779096 1 80696.42726246976
1.980988471140479 0.00774587170892227 0 80715.52043048259
1.980988471140479 0.00774587170892227 1 80715.52043048259
2 0 0 80884.65554451337
2 0 1 80884.65554451337
2.02 0 0 80946.19512311867
2.02 0 1 80946.19512311867
2.04 0 0 80786.93357203003
2.04 0 1 80786.93357203003
2.06 0 0 80730.91714278149
2.06 0 1 80730.91714278149
2.08 0 0 80690.70227656662
2.08 0 1 80690.70227656662
2.1 0 0 80662.56726504091
2.1 0 1 80662.56726504091
2.12 0 0 80639.94288354475
2.12 0 1 80639.94288354475
2.14 0 0 80620.81085027789
2.14 0 1 80620.81085027789
2.16 0 0 80604.10525014624
2.16 0 1 80604.10525014624
2.18 0 0 80589.06246626633
2.18 0 1 80589.06246626633
2.2 0 0 80575.1265157194
2.2 0 1 80575.1265157194
2.22 0 0 80562.01774136171
2.22 0 1 80562.01774136171
2.24 0 0 80549.6972107568
2.24 0 1 80549.6972107568
2.26 0 0 80537.74388720552
2.26 0 1 80537.74388720552
2.28 0 0 80525.84429699244
2.28 0 1 80525.84429699244
2.3 0 0 80514.06728470334
2.3 0 1 80514.06728470334
2.32 0 0 80502.28686010471
2.32 0 0.9999999999999999 80502.28686010471
2.34 0 0 80490.55461684195
2.34 0 1 80490.55461684195
2.36 0 0 80478.88510252375
2.36 0 1 80478.88510252375
2.38 0 0 80467.13476737894
2.38 0 1 80467.13476737894
2.4 0 0 80455.17977899102
2.4 0 1 80455.17977899102
2.42 0 0 80443.2450490146
2.42 0 1 80443.2450490146
2.44 0 0 80431.31718506347
2.44 0 1 80431.31718506347
2.46 0 0 80418.99988704061
2.46 0 1 80418.99988704061
2.48 0 0 80406.2319490309
2.48 0 1 80406.2319490309
2.5 0 0 80393.26076974862
2.5 0 1 80393.26076974862
2.52 0 0 80379.94092742796
2.52 0 1 80379.94092742796
2.54 0 0 80366.34988140568
2.54 0 1 80366.34988140568
2.56 0 0 80352.45013571063
2.56 0 1 80352.45013571063
2.58 0 0 80338.13969448159
2.58 0 1 80338.13969448159
2.6 0 0 80323.75438583859
2.6 0 1 80323.75438583859
2.62 0 0 80309.3803829431
2.62 0 1 80309.3803829431
2.64 0 0 80294.92405129276
2.64 0 1 80294.92405129276
2.66 0 0 80280.18859688481
2.66 0 1 80280.18859688481
2.68 0 0 80265.14209429034
2.68 0 1 80265.14209429034
2.7 0 0 80249.6182102258
2.7 0 1 80249.6182102258
2.72 0 0 80233.90300753276
2.72 0 1 80233.90300753276
2.74 0 0 80218.19306110595
2.74 0 1 80218.19306110595
2.76 0 0 80202.35191185903
2.76 0 1 80202.35191185903
2.78 0 0 80186.43737198849
2.78 0 1 80186.43737198849
2.8 0 0 80170.32149604315
2.8 0 1 80170.32149604315
2.82 0 0 80154.07035379225
2.82 0 1 80154.07035379225
2.84 0 0 80137.9840387783
2.84 0 1 80137.9840387783
2.86 0 0 80122.03918090394
2.86 0 1 80122.03918090394
2.88 0 0 80106.06493088414
2.88 0 1 80106.06493088414
2.9 0 0 80090.11870906482
2.9 0 1 80090.11870906482
2.92 0 0 80074.25192565906
2.92 0 1 80074.25192565906
2.94 0 0 80059.12658917884
2.94 0 1 80059.12658917884
2.96 0 0 80043.91699943086
2.96 0 1 80043.91699943086
2.98 0 0 80032.84882152855
2.98 0 1 80032.84882152855
3 0 0 80014.89011714999
3 0 1 80014.89011714999
