# p  POINT_DATA 302
# x  y  z  p
0 1 0 80873.50508398336
0 1 1 80873.50508398336
0.02 1 1 80871.1066075647
0.02 1 0 80871.1066075647
0.04 1 1 80869.99248306012
0.04 1 0 80869.99248306012
0.06 1 1 80871.59443105754
0.06 1 0 80871.59443105754
0.08 1 1 80872.15887994651
0.08 1 0 80872.15887994651
0.1 1 1 80872.54049545474
0.1 1 0 80872.54049545474
0.12 1 1 80872.64190814149
0.12 1 0 80872.64190814149
0.14 1 1 80872.46395575834
0.14 1 0 80872.46395575834
0.16 1 1 80872.06077214649
0.16 0.9999999999999999 0 80872.06077214649
0.18 1 1 80871.30877116381
0.18 1 0 80871.30877116381
0.2 1 1 80870.01572483152
0.2 1 0 80870.01572483152
0.22 1 1 80868.14022240293
0.22 1 0 80868.14022240293
0.24 1 1 80865.6752148012
0.24 1 0 80865.6752148012
0.26 1 1 80862.58910865171
0.26 1 0 80862.58910865171
0.28 1 1 80858.83935076336
0.28 1 0 80858.83935076336
0.3 1 1 80854.35856043498
0.3 1 0 80854.35856043498
0.32 1 1 80849.26688925776
0.32 1 0 80849.26688925776
0.34 1 1 80843.71870614108
0.34 1 0 80843.71870614108
0.36 1 1 80837.77193396818
0.36 1 0 80837.77193396818
0.3800000000000001 1 1 80831.49333845018
0.3800000000000001 1 0 80831.49333845018
0.4000000000000001 1 1 80824.92140333512
0.4000000000000001 1 0 80824.92140333512
0.42 1 1 80818.08749538203
0.42 1 0 80818.08749538203
0.44 1 1 80811.00738065591
0.44 1 0 80811.00738065591
0.46 1 1 80803.65686250081
0.46 1 0 80803.65686250081
0.48 1 1 80796.00077907331
0.48 1 0 80796.00077907331
0.5 1 1 80788.02559020351
0.5 1 0 80788.02559020351
0.52 1 1 80779.72675544917
0.52 1 0 80779.72675544917
0.54 1 1 80771.10552324794
0.54 1 0 80771.10552324794
0.5600000000000001 1 1 80762.14657764617
0.5600000000000001 1 0 80762.14657764617
0.58 1 1 80752.83062336707
0.58 1 0 80752.83062336707
0.6 1 1 80743.15156389531
0.6 1 0 80743.15156389531
0.62 1 1 80733.19154178302
0.62 1 0 80733.19154178302
0.64 1 1 80723.06114153194
0.64 1 0 80723.06114153194
0.66 1 1 80712.731600767
0.66 1 0 80712.731600767
0.68 1 1 80702.1040396032
0.68 1 0 80702.1040396032
0.6999999999999998 1 1 80691.10477288655
0.6999999999999998 1 0 80691.10477288655
0.7200000000000001 1 1 80679.73895557079
0.7200000000000001 1 0 80679.73895557079
0.7399999999999999 1 1 80668.11557342381
0.7399999999999999 1 0 80668.11557342381
0.7600000000000001 1 1 80656.36880336348
0.7600000000000001 1 0 80656.36880336348
0.7799999999999999 1 1 80644.41985538448
0.7799999999999999 1 0 80644.41985538448
0.8000000000000002 1 1 80632.26053043487
0.8000000000000002 1 0 80632.26053043487
0.82 1 1 80620.1283193155
0.82 1 0 80620.1283193155
0.84 1 1 80608.11173726917
0.84 1 0 80608.11173726917
0.86 1 1 80596.13274688445
0.86 1 0 80596.13274688445
0.88 1 1 80584.09213959763
0.88 1 0 80584.09213959763
0.9 1 1 80571.95862037715
0.9 1 0 80571.95862037715
0.92 1 1 80559.81096772796
0.92 1 0 80559.81096772796
0.9399999999999999 1 1 80547.75012092487
0.9399999999999999 1 0 80547.75012092487
0.96 1 1 80535.82007342504
0.96 1 0 80535.82007342504
0.98 1 1 80524.03318475679
0.98 1 0 80524.03318475679
1 1 1 80512.3980053358
1 1 0 80512.3980053358
1.02 1 1 80500.89831764376
1.02 1 0 80500.89831764376
1.04 1 1 80489.52810602283
1.04 1 0 80489.52810602283
1.06 1 1 80478.32062955484
1.06 1 0 80478.32062955484
1.08 1 1 80467.31651644601
1.08 1 0 80467.31651644601
1.1 1 1 80456.56294177007
1.1 1 0 80456.56294177007
1.12 1 1 80446.10679499037
1.12 1 0 80446.10679499037
1.14 1 1 80435.98892552912
1.14 1 0 80435.98892552912
1.16 1 1 80426.24198031044
1.16 0.9999999999999999 0 80426.24198031044
1.18 1 1 80416.89460056857
1.18 1 0 80416.89460056857
1.2 1 1 80407.96987931407
1.2 1 0 80407.96987931407
1.22 1 1 80399.48701689826
1.22 1 0 80399.48701689826
1.24 1 1 80391.46029042263
1.24 1 0 80391.46029042263
1.26 1 1 80383.90587715856
1.26 1 0 80383.90587715856
1.28 1 1 80376.84711431857
1.28 1 0 80376.84711431857
1.3 1 1 80370.30575078656
1.3 1 0 80370.30575078656
1.32 1 1 80364.30068029453
1.32 1 0 80364.30068029453
1.34 1 1 80358.84993417372
1.34 1 0 80358.84993417372
1.36 1 1 80353.9827518391
1.36 1 0 80353.9827518391
1.38 1 1 80349.72052485211
1.38 1 0 80349.72052485211
1.4 1 1 80346.05908149865
1.4 1 0 80346.05908149865
1.42 1 1 80343.09402488761
1.42 1 0 80343.09402488761
1.44 1 1 80340.88607302724
1.44 1 0 80340.88607302724
1.46 1 1 80339.22820845978
1.46 1 0 80339.22820845978
1.48 1 1 80338.179452924
1.48 1 0 80338.179452924
1.5 1 1 80337.91626306478
1.5 1 0 80337.91626306478
1.52 1 1 80338.3512343305
1.52 1 0 80338.3512343305
1.54 1 1 80339.42213596866
1.54 1 0 80339.42213596866
1.56 1 1 80341.11278862503
1.56 1 0 80341.11278862503
1.58 1 1 80343.41621073893
1.58 1 0 80343.41621073893
1.6 1 1 80346.25277878554
1.6 1 0 80346.25277878554
1.62 1 1 80349.51709371238
1.62 1 0 80349.51709371238
1.64 1 1 80353.18976862766
1.64 1 0 80353.18976862766
1.66 1 1 80357.28170842651
1.66 1 0 80357.28170842651
1.68 1 1 80361.75353702976
1.68 1 0 80361.75353702976
1.7 1 1 80366.53988216264
1.7 1 0 80366.53988216264
1.72 1 1 80371.59108790659
1.72 1 0 80371.59108790659
1.74 1 1 80376.87721623905
1.74 1 0 80376.87721623905
1.76 1 1 80382.3765701075
1.76 1 0 80382.3765701075
1.78 1 1 80388.06036386421
1.78 1 0 80388.06036386421
1.8 1 1 80393.89149756148
1.8 1 0 80393.89149756148
1.82 1 1 80399.82498290064
1.82 1 0 80399.82498290064
1.84 1 1 80405.80125340768
1.84 1 0 80405.80125340768
1.86 1 1 80411.77524786469
1.86 1 0 80411.77524786469
1.88 1 1 80417.71215294897
1.88 1 0 80417.71215294897
1.9 1 1 80423.58476061071
1.9 1 0 80423.58476061071
1.92 1 1 80429.37481326092
1.92 1 0 80429.37481326092
1.94 1 1 80435.053487963
1.94 1 0 80435.053487963
1.96 1 1 80440.5910424492
1.96 1 0 80440.5910424492
1.98 1 1 80445.9310775281
1.98 1 0 80445.9310775281
2 1 1 80451.07102127344
2 1 0 80451.07102127344
2.02 1 1 80455.97207212627
2.02 1 0 80455.97207212627
2.04 1 1 80460.53570501704
2.04 1 0 80460.53570501704
2.06 1 1 80464.73280195496
2.06 1 0 80464.73280195496
2.08 1 1 80468.53735035656
2.08 1 0 80468.53735035656
2.1 1 1 80471.91240761912
2.1 1 0 80471.91240761912
2.12 1 1 80474.8179764646
2.12 1 0 80474.8179764646
2.14 1 1 80477.1896384749
2.14 1 0 80477.1896384749
2.16 1 1 80479.10983569757
2.16 0.9999999999999999 0 80479.10983569757
2.18 1 1 80480.65634635181
2.18 1 0 80480.65634635181
2.2 1 1 80481.82653480461
2.2 1 0 80481.82653480461
2.22 1 1 80482.58370385901
2.22 1 0 80482.58370385901
2.24 1 1 80482.91872242081
2.24 1 0 80482.91872242081
2.26 1 1 80482.87310845708
2.26 1 0 80482.87310845708
2.28 1 1 80482.22996434371
2.28 1 0 80482.22996434371
2.3 1 1 80480.74802132417
2.3 1 0 80480.74802132417
2.32 1 1 80478.1895910621
2.32 1 0 80478.1895910621
2.34 1 1 80474.25911494167
2.34 1 0 80474.25911494167
2.36 1 1 80469.1279933435
2.36 1 0 80469.1279933435
2.38 1 1 80463.46724876425
2.38 1 0 80463.46724876425
2.4 1 1 80457.68470519118
2.4 1 0 80457.68470519118
2.42 1 1 80451.73976199233
2.42 1 0 80451.73976199233
2.44 1 1 80445.45376087871
2.44 1 0 80445.45376087871
2.46 1 1 80438.65503362456
2.46 1 0 80438.65503362456
2.48 1 1 80431.2680774601
2.48 1 0 80431.2680774601
2.5 1 1 80423.27449545266
2.5 1 0 80423.27449545266
2.52 1 1 80414.66045573817
2.52 1 0 80414.66045573817
2.54 1 1 80405.41193461939
2.54 1 0 80405.41193461939
2.56 1 1 80395.53917942379
2.56 1 0 80395.53917942379
2.58 1 1 80385.0273545043
2.58 1 0 80385.0273545043
2.6 1 1 80373.77610360144
2.6 1 0 80373.77610360144
2.62 1 1 80361.82234257276
2.62 1 0 80361.82234257276
2.64 1 1 80349.26788324334
2.64 1 0 80349.26788324334
2.66 1 1 80336.13547663254
2.66 1 0 80336.13547663254
2.68 1 1 80322.4522512822
2.68 1 0 80322.4522512822
2.7 1 1 80308.21562565518
2.7 1 0 80308.21562565518
2.72 1 1 80293.40005451128
2.72 1 0 80293.40005451128
2.74 1 1 80277.99300203921
2.74 1 0 80277.99300203921
2.76 1 1 80261.99970543268
2.76 1 0 80261.99970543268
2.78 1 1 80245.42370668921
2.78 1 0 80245.42370668921
2.8 1 1 80228.30267852204
2.8 1 0 80228.30267852204
2.82 1 1 80210.6685972077
2.82 1 0 80210.6685972077
2.84 1 1 80192.53121708721
2.84 1 0 80192.53121708721
2.859999999999999 1 1 80173.85726576005
2.859999999999999 1 0 80173.85726576005
2.88 1 1 80154.59371187411
2.88 1 0 80154.59371187411
2.9 1 1 80134.72977903043
2.9 1 0 80134.72977903043
2.92 1 1 80114.24464751015
2.92 1 0 80114.24464751015
2.94 1 1 80092.92579402626
2.94 1 0 80092.92579402626
2.96 1 1 80069.23467152558
2.96 1 0 80069.23467152558
2.98 1 1 80042.71499256
2.98 1 0 80042.71499256
3 1 1 80014.48584051369
3 1 0 80014.48584051369
