/*--------------------------------*- C++ -*----------------------------------*\
| =========                 |                                                 |
| \\      /  F ield         | OpenFOAM: The Open Source CFD Toolbox           |
|  \\    /   O peration     | Version:  v1912                                 |
|   \\  /    A nd           | Website:  www.openfoam.com                      |
|    \\/     M anipulation  |                                                 |
\*---------------------------------------------------------------------------*/
FoamFile
{
    version     2.0;
    format      ascii;
    class       surfaceScalarField;
    location    "0.03";
    object      phi;
}
// * * * * * * * * * * * * * * * * * * * * * * * * * * * * * * * * * * * * * //

dimensions      [1 0 -1 0 0 0 0];
oriented        oriented;


internalField   nonuniform List<scalar> 
31936
(
0.00525002
9.08972e-20
0.00525002
6.28922e-19
0.00525002
-2.47588e-18
0.00525002
5.45277e-19
0.00525002
1.32137e-18
0.00525002
4.22881e-19
0.00525002
-8.33904e-19
0.00525002
2.5123e-18
0.00525002
3.95141e-18
0.00525002
2.89516e-18
0.00525002
-1.38956e-18
0.00525002
-2.11674e-18
0.00525002
-1.5704e-18
0.00525002
-4.95345e-18
0.00525002
-5.47861e-18
0.00525002
-7.28279e-18
0.00525002
-6.68309e-18
0.00525002
-6.61702e-18
0.00525002
-2.23574e-18
0.00525002
2.05829e-18
0.00525002
3.89466e-18
0.00525002
3.50756e-18
0.00525002
3.94929e-19
0.00525002
-3.61768e-18
0.00525002
-2.12521e-18
0.00525002
-3.12873e-19
0.00525002
1.95199e-18
0.00525002
6.49844e-18
0.00525002
1.40879e-17
0.00525002
1.07641e-17
0.00525002
2.29343e-17
0.00525002
2.59429e-17
0.00525002
1.56227e-17
0.00525002
1.40946e-17
0.00525002
1.76522e-17
0.00525002
2.0383e-17
0.00525002
1.66764e-17
0.00525002
9.23944e-18
0.00525002
8.5652e-18
0.00525002
1.17839e-17
0.00525002
5.16182e-18
0.00525002
5.59381e-18
0.00525002
-5.40583e-16
0.00525002
1.44368e-14
0.00525001
1.09853e-11
0.00524207
3.13577e-09
0.00305556
5.30662e-07
-1.29822e-07
0.00525002
1.24133e-18
0.00525002
2.35475e-18
0.00525002
2.15316e-18
0.00525002
8.20775e-19
0.00525002
1.35314e-19
0.00525002
-5.70477e-19
0.00525002
-6.61025e-18
0.00525002
-2.73168e-18
0.00525002
2.51653e-18
0.00525002
6.72205e-18
0.00525002
3.06711e-18
0.00525002
-4.596e-18
0.00525002
-6.98463e-18
0.00525002
-8.68039e-18
0.00525002
-5.05848e-18
0.00525002
-4.28429e-18
0.00525002
-2.4979e-18
0.00525002
6.05099e-19
0.00525002
5.6514e-18
0.00525002
8.65668e-18
0.00525002
9.62907e-18
0.00525002
5.22619e-18
0.00525002
4.37069e-18
0.00525002
4.68579e-18
0.00525002
8.58553e-18
0.00525002
6.06814e-18
0.00525002
2.59023e-18
0.00525002
2.13452e-18
0.00525002
7.08458e-18
0.00525002
1.31561e-17
0.00525002
2.0959e-17
0.00525002
2.329e-17
0.00525002
1.77708e-17
0.00525002
1.54499e-17
0.00525002
5.27532e-18
0.00525002
4.7095e-19
0.00525002
2.48011e-18
0.00525002
-1.32857e-18
0.00525002
8.44492e-18
0.00525002
1.42302e-18
0.00525002
9.52743e-18
0.00525002
1.0842e-19
0.00525002
-1.21517e-15
0.00525002
-3.37057e-14
0.00525001
-7.16846e-12
0.0052421
-6.34287e-10
0.00305678
5.41738e-07
-1.85189e-07
0.00525002
3.71424e-19
0.00525002
-2.05278e-18
0.00525002
-1.38024e-18
0.00525002
-2.37593e-18
0.00525002
-1.16348e-17
0.00525002
-5.47183e-18
0.00525002
-2.97478e-18
0.00525002
2.02949e-18
0.00525002
-8.7075e-19
0.00525002
-1.44334e-18
0.00525002
-5.60228e-18
0.00525002
-1.60157e-17
0.00525002
-1.84856e-17
0.00525002
-1.48536e-17
0.00525002
-6.87791e-18
0.00525002
-6.16979e-18
0.00525002
-4.78743e-18
0.00525002
-5.40068e-18
0.00525002
-1.67204e-18
0.00525002
-4.72814e-18
0.00525002
-1.13197e-17
0.00525002
-9.33769e-18
0.00525002
-4.39949e-18
0.00525002
2.05236e-18
0.00525002
2.63427e-18
0.00525002
6.77626e-20
0.00525002
-4.48335e-18
0.00525002
-6.46456e-18
0.00525002
-7.52504e-18
0.00525002
-3.64224e-18
0.00525002
-3.83198e-18
0.00525002
-6.19774e-18
0.00525002
-4.33935e-18
0.00525002
-1.63266e-18
0.00525002
-5.72594e-18
0.00525002
-9.8493e-18
0.00525002
-9.77137e-18
0.00525002
-8.17217e-18
0.00525002
-4.36053e-18
0.00525002
-9.87979e-18
0.00525002
1.11131e-18
0.00525002
-2.968e-17
0.00525002
-1.37824e-15
0.00525002
-3.46789e-14
0.00525001
-8.03892e-12
0.00524206
-7.53169e-10
0.0030568
-8.92886e-09
1.26698e-07
0.00525002
-2.7698e-19
0.00525002
-3.64055e-18
0.00525002
-3.82351e-18
0.00525002
2.69018e-18
0.00525002
-9.85608e-18
0.00525002
5.49216e-18
0.00525002
8.67701e-18
0.00525002
8.98533e-18
0.00525002
-1.23362e-17
0.00525002
-1.55651e-17
0.00525002
-9.1073e-18
0.00525002
1.16382e-18
0.00525002
-1.24073e-17
0.00525002
-5.63108e-18
0.00525002
-5.2516e-18
0.00525002
-2.56143e-18
0.00525002
1.44927e-18
0.00525002
1.01746e-17
0.00525002
7.45897e-18
0.00525002
1.25564e-17
0.00525002
-1.88516e-17
0.00525002
-3.483e-18
0.00525002
2.03966e-18
0.00525002
8.94467e-19
0.00525002
2.418e-17
0.00525002
-1.24683e-18
0.00525002
-1.69407e-18
0.00525002
-9.21572e-19
0.00525002
4.17418e-18
0.00525002
-1.69407e-21
0.00525002
-9.37835e-18
0.00525002
-1.12283e-17
0.00525002
-5.60397e-18
0.00525002
-2.13452e-18
0.00525002
-1.63308e-18
0.00525002
2.12309e-18
0.00525002
-5.56331e-18
0.00525002
-9.03954e-18
0.00525002
1.21634e-18
0.00525002
-8.92603e-18
0.00525002
-1.95156e-17
0.00525002
-3.11437e-17
0.00525002
-7.99491e-16
0.00525002
-1.81253e-14
0.00525001
1.83129e-13
0.00524206
-1.01128e-10
0.00305662
5.26381e-08
1.27266e-08
0.00525002
-1.02957e-18
0.00525002
7.40307e-18
0.00525002
8.73799e-18
0.00525002
8.09594e-18
0.00525002
9.27332e-18
0.00525002
6.89485e-18
0.00525002
3.02391e-19
0.00525002
2.46656e-18
0.00525002
-9.5359e-18
0.00525002
-4.04374e-18
0.00525002
-9.13102e-19
0.00525002
5.72425e-18
0.00525002
5.81065e-19
0.00525002
1.43149e-18
0.00525002
2.15655e-18
0.00525002
1.27292e-17
0.00525002
1.4054e-17
0.00525002
2.01594e-17
0.00525002
2.11352e-17
0.00525002
2.18196e-17
0.00525002
2.1745e-17
0.00525002
1.80587e-17
0.00525002
1.53957e-17
0.00525002
2.2443e-17
0.00525002
2.89414e-17
0.00525002
2.36017e-17
0.00525002
1.9231e-17
0.00525002
1.48129e-17
0.00525002
9.3919e-18
0.00525002
1.04388e-17
0.00525002
1.47282e-17
0.00525002
1.28613e-17
0.00525002
1.30036e-17
0.00525002
1.48163e-17
0.00525002
1.02491e-17
0.00525002
4.74338e-18
0.00525002
8.69056e-18
0.00525002
7.8232e-18
0.00525002
4.68409e-18
0.00525002
7.96211e-20
0.00525002
-1.18686e-17
0.00525002
6.80608e-17
0.00525002
-1.0159e-16
0.00525002
-7.08981e-15
0.00525001
9.75722e-12
0.00524208
2.90879e-09
0.00305653
3.97107e-07
-2.34482e-07
0.00525002
-4.15385e-18
0.00525002
-5.09829e-18
0.00525002
6.7085e-19
0.00525002
2.9409e-18
0.00525002
3.50841e-18
0.00525002
4.67816e-18
0.00525002
-1.24937e-19
0.00525002
1.53821e-18
0.00525002
3.29411e-18
0.00525002
-3.9387e-19
0.00525002
-1.87533e-18
0.00525002
-1.60597e-18
0.00525002
-1.5416e-18
0.00525002
1.13536e-17
0.00525002
1.98477e-17
0.00525002
1.83433e-17
0.00525002
1.73066e-17
0.00525002
1.16111e-17
0.00525002
1.15739e-17
0.00525002
8.82947e-18
0.00525002
7.89435e-18
0.00525002
5.95634e-18
0.00525002
8.3924e-18
0.00525002
8.72105e-18
0.00525002
7.69106e-18
0.00525002
1.62673e-18
0.00525002
4.61802e-18
0.00525002
3.51857e-18
0.00525002
-8.39621e-20
0.00525002
1.50772e-19
0.00525002
-2.07826e-19
0.00525002
-5.08728e-18
0.00525002
-7.50471e-18
0.00525002
-5.86486e-18
0.00525002
-4.9399e-18
0.00525002
-1.05371e-17
0.00525002
-8.67362e-18
0.00525002
-9.69175e-18
0.00525002
-4.71204e-18
0.00525002
-3.56093e-18
0.00525002
1.39168e-18
0.00525002
5.9089e-17
0.00525002
1.84314e-18
0.00525002
2.49366e-16
0.00525001
1.06058e-11
0.00524209
2.93333e-09
0.00305652
-1.41891e-07
2.47348e-07
0.00525002
-3.02603e-18
0.00525002
-2.77234e-18
0.00525002
-3.73669e-18
0.00525002
2.39372e-18
0.00525002
6.79659e-18
0.00525002
7.91806e-18
0.00525002
7.89604e-18
0.00525002
4.24025e-18
0.00525002
4.66038e-18
0.00525002
3.07049e-18
0.00525002
-2.97817e-18
0.00525002
-7.64701e-18
0.00525002
-1.53398e-18
0.00525002
1.12012e-17
0.00525002
4.4249e-18
0.00525002
1.12622e-17
0.00525002
1.12893e-17
0.00525002
7.20656e-18
0.00525002
4.53501e-18
0.00525002
-4.80903e-19
0.00525002
-8.785e-20
0.00525002
1.35864e-18
0.00525002
2.61267e-18
0.00525002
4.31457e-19
0.00525002
-1.39506e-18
0.00525002
-1.45817e-18
0.00525002
2.633e-18
0.00525002
-1.80587e-18
0.00525002
-5.77676e-18
0.00525002
-8.63635e-18
0.00525002
-1.07844e-17
0.00525002
-1.48366e-17
0.00525002
-1.33831e-17
0.00525002
-7.70461e-18
0.00525002
-5.01952e-18
0.00525002
-4.59939e-19
0.00525002
-1.55515e-18
0.00525002
-1.37728e-17
0.00525002
-5.14149e-18
0.00525002
-5.06526e-19
0.00525002
-5.96311e-19
0.00525002
-2.56211e-17
0.00525002
-3.98986e-17
0.00525002
3.19536e-15
0.00525001
-6.76713e-12
0.0052421
-2.64947e-09
0.00305602
-3.70081e-09
-4.78019e-08
0.00525002
2.51569e-18
0.00525002
4.51977e-18
0.00525002
2.43945e-18
0.00525002
1.04185e-18
0.00525002
-2.40473e-18
0.00525002
-5.99699e-19
0.00525002
4.24951e-18
0.00525002
9.60535e-19
0.00525002
6.25788e-18
0.00525002
6.46286e-18
0.00525002
3.95395e-18
0.00525002
2.49909e-17
0.00525002
1.50975e-17
0.00525002
1.61817e-17
0.00525002
7.26754e-18
0.00525002
5.7666e-18
0.00525002
9.17675e-18
0.00525002
-4.37471e-18
0.00525002
-6.11897e-18
0.00525002
-9.04292e-18
0.00525002
-7.65718e-18
0.00525002
-5.40068e-18
0.00525002
-1.02555e-17
0.00525002
-6.44698e-18
0.00525002
-7.86047e-19
0.00525002
8.35174e-19
0.00525002
-8.52454e-18
0.00525002
-2.11284e-17
0.00525002
-2.4198e-17
0.00525002
-2.60886e-17
0.00525002
-2.0837e-17
0.00525002
-1.73676e-17
0.00525002
-1.79334e-17
0.00525002
-7.28787e-18
0.00525002
-2.38101e-18
0.00525002
-2.15464e-19
0.00525002
-1.70381e-18
0.00525002
-6.77573e-19
0.00525002
-9.92553e-18
0.00525002
7.84353e-19
0.00525002
-1.19432e-18
0.00525002
2.51298e-17
0.00525002
2.75387e-16
0.00525002
2.10513e-14
0.00525001
4.50339e-13
0.00524209
6.23498e-11
0.00305596
2.66423e-08
-2.74919e-07
0.00525002
1.4713e-18
0.00525002
-7.31879e-18
0.00525002
1.80079e-18
0.00525002
-5.67681e-18
0.00525002
-1.21702e-17
0.00525002
-1.1889e-17
0.00525002
-5.05848e-18
0.00525002
-1.23802e-17
0.00525002
-6.93974e-18
0.00525002
-1.76098e-18
0.00525002
1.21566e-17
0.00525002
3.45589e-17
0.00525002
3.61039e-17
0.00525002
3.04661e-17
0.00525002
1.77945e-17
0.00525002
9.70361e-18
0.00525002
1.77538e-18
0.00525002
-1.47147e-17
0.00525002
-1.60868e-17
0.00525002
-1.87635e-17
0.00525002
-1.84382e-17
0.00525002
-1.77267e-17
0.00525002
-1.69474e-17
0.00525002
-1.16755e-17
0.00525002
-1.6097e-17
0.00525002
-1.96173e-17
0.00525002
-2.21787e-17
0.00525002
-2.33103e-17
0.00525002
-2.73897e-17
0.00525002
-2.84332e-17
0.00525002
-2.47063e-17
0.00525002
-2.55533e-17
0.00525002
-2.86568e-17
0.00525002
-1.9414e-17
0.00525002
-1.55515e-17
0.00525002
-1.10013e-17
0.00525002
-1.05405e-17
0.00525002
-1.27089e-17
0.00525002
-1.94547e-17
0.00525002
-7.03715e-18
0.00525002
-2.12504e-17
0.00525002
-2.13046e-17
0.00525002
1.81983e-16
0.00525002
3.59682e-14
0.00525001
1.88891e-11
0.00524208
7.42855e-09
0.00305549
-6.60279e-07
-3.001e-08
0.00525002
1.97676e-19
0.00525002
-7.24213e-18
0.00525002
-6.95414e-18
0.00525002
-1.71101e-18
0.00525002
-1.32137e-18
0.00525002
-2.17349e-18
0.00525002
-1.05303e-17
0.00525002
-6.06814e-18
0.00525002
-1.0554e-17
0.00525002
-3.83791e-18
0.00525002
-2.02399e-18
0.00525002
-1.65764e-18
0.00525002
-1.73176e-18
0.00525002
-7.09167e-19
0.00525002
5.22196e-19
0.00525002
4.3402e-18
0.00525002
9.34447e-18
0.00525002
7.82658e-18
0.00525002
2.27598e-18
0.00525002
-4.05221e-18
0.00525002
-1.56091e-17
0.00525002
-1.47045e-18
0.00525002
-1.35864e-17
0.00525002
-1.97122e-17
0.00525002
-2.55939e-17
0.00525002
-2.40761e-17
0.00525002
-2.23888e-17
0.00525002
-1.85331e-17
0.00525002
-1.917e-17
0.00525002
-1.6507e-17
0.00525002
-1.74523e-17
0.00525002
-1.56871e-17
0.00525002
-7.59958e-18
0.00525002
-1.58937e-17
0.00525002
-1.68458e-17
0.00525002
-2.24701e-17
0.00525002
-2.17383e-17
0.00525002
-1.67984e-17
0.00525002
-1.36237e-17
0.00525002
-5.23805e-18
0.00525002
1.77877e-19
0.00525002
-8.81592e-18
0.00525002
2.76959e-16
0.00525002
-2.10669e-14
0.00525001
-1.45715e-11
0.00524212
-2.5102e-09
0.00305493
2.51907e-07
3.16165e-06
0.00525002
2.59932e-19
0.00525002
-1.98206e-18
0.00525002
-4.16317e-19
0.00525002
1.74616e-18
0.00525002
1.38532e-18
0.00525002
3.92388e-19
0.00525002
-4.57567e-18
0.00525002
-9.5071e-18
0.00525002
-9.1649e-18
0.00525002
-4.50283e-18
0.00525002
-9.92723e-18
0.00525002
-1.5477e-17
0.00525002
-1.35729e-17
0.00525002
-1.01542e-17
0.00525002
-1.10385e-17
0.00525002
-6.38493e-18
0.00525002
-4.11827e-18
0.00525002
-6.03087e-18
0.00525002
-2.23617e-19
0.00525002
8.00954e-18
0.00525002
1.56057e-17
0.00525002
1.14417e-17
0.00525002
3.06711e-18
0.00525002
-7.99917e-19
0.00525002
-1.62046e-17
0.00525002
-1.5909e-17
0.00525002
-1.30816e-17
0.00525002
1.17026e-17
0.00525002
-6.95605e-18
0.00525002
8.57748e-18
0.00525002
6.13559e-18
0.00525002
5.50444e-18
0.00525002
-1.52995e-19
0.00525002
-2.52416e-18
0.00525002
-1.02728e-17
0.00525002
1.52466e-19
0.00525002
-7.39968e-18
0.00525002
-9.08866e-18
0.00525002
6.38663e-19
0.00525002
-2.5699e-18
0.00525002
-3.38834e-18
0.00525002
-1.44453e-17
0.00525002
1.69027e-16
0.00525002
6.12314e-15
0.00525001
7.14035e-12
0.0052421
1.24909e-08
0.00305673
9.16871e-06
8.59208e-05
0.00525002
-2.13071e-18
0.00525002
7.68259e-19
0.00525002
1.20787e-18
0.00525002
-1.15959e-18
0.00525002
-7.564e-19
0.00525002
-6.16979e-18
0.00525002
-1.00594e-17
0.00525002
-1.3146e-17
0.00525002
-1.25395e-17
0.00525002
-1.43962e-17
0.00525002
-1.64528e-17
0.00525002
-1.57311e-17
0.00525002
-1.02084e-17
0.00525002
-1.30714e-17
0.00525002
-1.35661e-17
0.00525002
-1.64087e-17
0.00525002
-1.64053e-17
0.00525002
-1.26682e-17
0.00525002
-7.50302e-18
0.00525002
4.26481e-19
0.00525002
1.43869e-18
0.00525002
5.07542e-18
0.00525002
6.00716e-18
0.00525002
6.38155e-18
0.00525002
8.8227e-18
0.00525002
8.09425e-18
0.00525002
1.0859e-17
0.00525002
1.58937e-17
0.00525002
1.54634e-17
0.00525002
-3.76083e-19
0.00525002
7.60974e-18
0.00525002
6.36715e-18
0.00525002
3.33477e-18
0.00525002
6.44084e-18
0.00525002
8.08747e-18
0.00525002
8.88029e-18
0.00525002
6.75932e-18
0.00525002
3.24922e-18
0.00525002
3.94379e-18
0.00525002
1.67162e-18
0.00525002
-2.16671e-18
0.00525002
-1.30409e-17
0.00525002
1.66859e-16
0.00525002
1.46831e-13
0.00525001
9.01268e-11
0.00524232
6.42393e-08
0.00308754
2.62267e-05
0.00141826
0.00525002
-1.63562e-18
0.00525002
7.51689e-19
0.00525002
-4.09964e-19
0.00525002
-2.18873e-18
0.00525002
8.70263e-18
0.00525002
4.14199e-18
0.00525002
-7.07315e-18
0.00525002
-7.5225e-18
0.00525002
-4.98902e-18
0.00525002
-3.21534e-18
0.00525002
-5.23128e-18
0.00525002
-7.48099e-18
0.00525002
-1.28952e-17
0.00525002
-1.11368e-17
0.00525002
-1.36643e-17
0.00525002
-1.00119e-17
0.00525002
-7.69784e-18
0.00525002
2.26158e-19
0.00525002
7.1642e-18
0.00525002
2.05194e-18
0.00525002
-2.89346e-18
0.00525002
-2.74608e-18
0.00525002
-8.74985e-19
0.00525002
2.40896e-18
0.00525002
2.06083e-18
0.00525002
5.30243e-19
0.00525002
1.68771e-18
0.00525002
2.83333e-18
0.00525002
1.00543e-18
0.00525002
-6.72883e-18
0.00525002
-6.31717e-18
0.00525002
-2.61776e-18
0.00525002
-1.70931e-18
0.00525002
4.81115e-19
0.00525002
4.77218e-18
0.00525002
-1.48331e-18
0.00525002
3.96411e-18
0.00525002
-7.89435e-19
0.00525002
-1.89142e-18
0.00525002
-3.44404e-18
0.00525002
-3.27971e-18
0.00525002
7.00327e-18
0.00525002
1.46042e-16
0.00525002
2.99801e-13
0.00525001
1.90934e-10
0.00524332
2.10699e-07
0.00327799
0.000292158
0.00137393
0.00525002
1.14095e-18
0.00525002
-2.65714e-18
0.00525002
-2.6131e-18
0.00525002
2.50298e-19
0.00525002
1.30104e-17
0.00525002
1.23701e-17
0.00525002
7.4505e-18
0.00525002
6.83386e-18
0.00525002
6.7949e-18
0.00525002
-4.37916e-19
0.00525002
3.24837e-18
0.00525002
2.19212e-18
0.00525002
-5.14149e-19
0.00525002
-6.94736e-18
0.00525002
-4.53756e-18
0.00525002
-3.998e-18
0.00525002
9.7917e-19
0.00525002
3.82859e-18
0.00525002
8.28737e-18
0.00525002
7.14557e-18
0.00525002
5.1525e-18
0.00525002
-7.07273e-19
0.00525002
-7.07781e-18
0.00525002
-7.55723e-18
0.00525002
-1.40015e-18
0.00525002
-1.76606e-18
0.00525002
-8.05359e-18
0.00525002
-1.38134e-17
0.00525002
-1.09945e-17
0.00525002
-6.60008e-18
0.00525002
-1.18381e-17
0.00525002
-1.01203e-17
0.00525002
-7.77237e-18
0.00525002
-8.92773e-18
0.00525002
-9.58841e-18
0.00525002
-5.44812e-18
0.00525002
-6.04782e-19
0.00525002
-5.6819e-18
0.00525002
-3.09252e-18
0.00525002
-4.42151e-18
0.00525002
-4.3834e-20
0.00525002
5.1381e-18
0.00525002
1.28966e-16
0.00525002
4.10375e-13
0.00525001
1.36887e-10
0.00524573
1.43283e-07
0.00369914
-8.08394e-06
0.00861444
0.00525002
3.33392e-18
0.00525002
-6.20875e-19
0.00525002
-4.18095e-18
0.00525002
-8.66345e-18
0.00525002
-1.48993e-18
0.00525002
3.69391e-18
0.00525002
7.91637e-18
0.00525002
7.51488e-18
0.00525002
5.80387e-18
0.00525002
1.0493e-17
0.00525002
1.01576e-17
0.00525002
9.81203e-18
0.00525002
1.04626e-17
0.00525002
1.35559e-17
0.00525002
1.55888e-17
0.00525002
1.3129e-17
0.00525002
7.72494e-18
0.00525002
7.19639e-18
0.00525002
4.14284e-18
0.00525002
2.10212e-18
0.00525002
8.13152e-18
0.00525002
7.47761e-18
0.00525002
3.16452e-18
0.00525002
3.38644e-18
0.00525002
-1.33831e-18
0.00525002
1.83976e-18
0.00525002
-1.77623e-18
0.00525002
-3.89635e-20
0.00525002
1.03973e-19
0.00525002
-6.7805e-19
0.00525002
7.21249e-18
0.00525002
8.48558e-18
0.00525002
4.06872e-18
0.00525002
-7.3082e-18
0.00525002
1.66188e-18
0.00525002
-4.6392e-18
0.00525002
-6.28329e-18
0.00525002
-7.34378e-18
0.00525002
-3.73542e-18
0.00525002
-5.03476e-18
0.00525002
-6.20769e-19
0.00525002
-3.66172e-18
0.00525002
3.36238e-17
0.00525002
5.97001e-13
0.00525001
1.44247e-10
0.00524761
2.65256e-07
0.00421921
6.15621e-05
0.00312215
0.00525002
2.93073e-19
0.00525002
8.63974e-19
0.00525002
-2.55126e-18
0.00525002
-3.73033e-18
0.00525002
3.38813e-21
0.00525002
-4.44015e-18
0.00525002
-9.635e-21
0.00525002
1.02745e-18
0.00525002
2.10149e-18
0.00525002
3.14779e-18
0.00525002
2.37847e-18
0.00525002
6.55942e-18
0.00525002
1.12926e-17
0.00525002
9.09713e-18
0.00525002
6.08508e-18
0.00525002
2.03711e-18
0.00525002
3.55457e-18
0.00525002
-7.1083e-18
0.00525002
-1.80791e-17
0.00525002
-2.13283e-17
0.00525002
-9.84591e-18
0.00525002
-2.27445e-17
0.00525002
7.69106e-19
0.00525002
2.14469e-17
0.00525002
1.51822e-17
0.00525002
1.64291e-17
0.00525002
1.51246e-17
0.00525002
8.71258e-18
0.00525002
2.72321e-18
0.00525002
6.39171e-18
0.00525002
7.51318e-18
0.00525002
9.97466e-18
0.00525002
6.74916e-18
0.00525002
4.90432e-18
0.00525002
5.853e-18
0.00525002
3.65071e-18
0.00525002
-1.94691e-18
0.00525002
-2.94513e-18
0.00525002
-3.31698e-18
0.00525002
-3.35764e-18
0.00525002
-4.57059e-18
0.00525002
2.07964e-17
0.00525002
2.60452e-16
0.00525002
6.84639e-13
0.00525002
4.23146e-11
0.0052494
1.28865e-07
0.00484731
9.25103e-06
0.00826793
0.00525002
-2.6275e-18
0.00525002
1.50475e-18
0.00525002
6.40357e-19
0.00525002
4.26396e-18
0.00525002
3.70662e-18
0.00525002
1.27563e-18
0.00525002
9.27713e-19
0.00525002
2.45089e-18
0.00525002
2.92142e-18
0.00525002
6.9228e-18
0.00525002
2.45809e-18
0.00525002
5.36002e-18
0.00525002
6.4527e-18
0.00525002
8.27043e-18
0.00525002
5.96819e-18
0.00525002
3.6973e-18
0.00525002
-2.6419e-18
0.00525002
-1.4325e-17
0.00525002
-2.28089e-17
0.00525002
-2.00781e-17
0.00525002
-7.84014e-18
0.00525002
-2.34493e-17
0.00525002
-1.17771e-17
0.00525002
-4.96022e-18
0.00525002
-5.66883e-19
0.00525002
3.37458e-18
0.00525002
6.54926e-18
0.00525002
1.40777e-18
0.00525002
1.86453e-19
0.00525002
3.49147e-18
0.00525002
4.01494e-18
0.00525002
3.51688e-18
0.00525002
5.40068e-18
0.00525002
3.10353e-18
0.00525002
2.41743e-18
0.00525002
2.87568e-18
0.00525002
2.33447e-19
0.00525002
-4.43422e-18
0.00525002
-5.86655e-18
0.00525002
-2.37339e-18
0.00525002
-5.94617e-18
0.00525002
-4.84249e-18
0.00525002
3.0195e-16
0.00525002
5.25097e-13
0.00525002
8.29377e-11
0.00524995
4.31239e-08
0.00522379
3.31446e-07
0.0035677
0.00885378
0.00525002
-2.03881e-18
0.00525002
7.69953e-18
0.00525002
8.26704e-18
0.00525002
7.58603e-18
0.00525002
1.02355e-17
0.00525002
1.22481e-17
0.00525002
4.369e-18
0.00525002
4.67901e-18
0.00525002
6.34428e-18
0.00525002
1.34475e-17
0.00525002
9.92384e-18
0.00525002
4.95006e-18
0.00525002
5.72806e-19
0.00525002
-9.42854e-20
0.00525002
2.54195e-18
0.00525002
1.7199e-18
0.00525002
-2.66138e-18
0.00525002
-1.56769e-17
0.00525002
-1.51178e-17
0.00525002
-1.28004e-17
0.00525002
-4.30293e-18
0.00525002
-8.44661e-18
0.00525002
-1.072e-17
0.00525002
-1.1706e-17
0.00525002
-1.05337e-17
0.00525002
-5.64463e-18
0.00525002
-3.03661e-18
0.00525002
-1.90582e-19
0.00525002
3.68544e-18
0.00525002
4.8247e-18
0.00525002
8.46017e-18
0.00525002
7.35225e-18
0.00525002
1.36881e-17
0.00525002
1.09538e-17
0.00525002
4.95514e-18
0.00525002
-3.18484e-19
0.00525002
2.55126e-18
0.00525002
-3.97851e-18
0.00525002
5.48877e-18
0.00525002
-1.67882e-18
0.00525002
-6.72544e-19
0.00525002
-1.28105e-17
0.00525002
6.72747e-17
0.00525002
2.13757e-13
0.00525002
4.0828e-11
0.00525004
1.26873e-08
0.00524475
1.70805e-06
0.00100892
0.00659705
0.00525002
-3.18993e-18
0.00525002
4.92973e-18
0.00525002
2.17857e-18
0.00525002
-1.29189e-17
0.00525002
-1.21083e-17
0.00525002
-2.08031e-18
0.00525002
7.40476e-18
0.00525002
1.17738e-17
0.00525002
1.06252e-17
0.00525002
4.47233e-18
0.00525002
7.31784e-18
0.00525002
-5.23128e-18
0.00525002
-1.76454e-17
0.00525002
-1.71135e-17
0.00525002
-1.08386e-17
0.00525002
-8.97855e-18
0.00525002
-4.43591e-18
0.00525002
-9.52404e-18
0.00525002
-7.8503e-18
0.00525002
-1.02864e-17
0.00525002
-1.53381e-17
0.00525002
-1.15434e-17
0.00525002
-1.02559e-17
0.00525002
-1.08624e-17
0.00525002
-1.67509e-17
0.00525002
-8.78204e-18
0.00525002
-1.24141e-17
0.00525002
-6.20706e-18
0.00525002
-5.99488e-19
0.00525002
3.99588e-19
0.00525002
-1.07895e-17
0.00525002
-7.83336e-18
0.00525002
1.59445e-17
0.00525002
1.0266e-17
0.00525002
7.91806e-18
0.00525002
3.3407e-18
0.00525002
4.79251e-18
0.00525002
8.0214e-18
0.00525002
5.5091e-18
0.00525002
8.43327e-19
0.00525002
-2.11758e-20
0.00525002
-9.87471e-18
0.00525002
-1.59107e-17
0.00525002
3.77844e-14
0.00525002
8.35618e-12
0.00525002
1.51066e-09
0.0052501
2.29362e-07
0.000107218
0.00571385
0.00525002
8.69056e-19
0.00525002
-5.17368e-18
0.00525002
-1.08793e-17
0.00525002
-1.33221e-17
0.00525002
-1.38676e-17
0.00525002
-1.06523e-17
0.00525002
3.70323e-18
0.00525002
1.05583e-17
0.00525002
1.17229e-18
0.00525002
-4.03526e-18
0.00525002
-7.14726e-18
0.00525002
-6.89993e-18
0.00525002
-1.48603e-17
0.00525002
-1.62834e-17
0.00525002
-1.69542e-17
0.00525002
-1.20753e-17
0.00525002
-8.66345e-18
0.00525002
-7.7656e-18
0.00525002
-9.9916e-18
0.00525002
-1.4281e-17
0.00525002
-1.53686e-17
0.00525002
-1.13875e-17
0.00525002
-8.83625e-18
0.00525002
-1.12926e-17
0.00525002
-2.23956e-17
0.00525002
-1.26987e-17
0.00525002
-3.37119e-18
0.00525002
-6.01563e-18
0.00525002
-7.82658e-19
0.00525002
-3.39152e-18
0.00525002
-9.47999e-18
0.00525002
-2.36513e-18
0.00525002
-1.6641e-18
0.00525002
1.06557e-18
0.00525002
2.82231e-18
0.00525002
3.15986e-18
0.00525002
-2.47747e-18
0.00525002
2.41828e-18
0.00525002
8.44174e-19
0.00525002
1.3904e-18
0.00525002
3.04953e-18
0.00525002
-7.44542e-19
0.00525002
-1.37016e-17
0.00525002
2.51145e-15
0.00525002
5.90599e-13
0.00525002
8.72567e-11
0.00525002
1.25155e-08
4.01932e-06
0.00528798
0.00525002
1.83721e-18
0.00525002
-9.05478e-19
0.00525002
-4.85519e-18
0.00525002
-5.04323e-18
0.00525002
-7.12863e-18
0.00525002
-1.07133e-17
0.00525002
-2.33984e-17
0.00525002
-3.48707e-17
0.00525002
-2.33984e-17
0.00525002
-1.61173e-17
0.00525002
-5.10253e-18
0.00525002
-4.53163e-18
0.00525002
-4.84842e-18
0.00525002
-9.30042e-18
0.00525002
-2.28699e-17
0.00525002
-1.57074e-17
0.00525002
-1.33221e-17
0.00525002
-9.61891e-18
0.00525002
-9.13779e-18
0.00525002
-1.26377e-18
0.00525002
-7.24891e-18
0.00525002
-6.27143e-18
0.00525002
-2.44115e-18
0.00525002
-7.79101e-18
0.00525002
-1.60606e-17
0.00525002
1.07234e-18
0.00525002
4.36222e-18
0.00525002
-2.70373e-18
0.00525002
-2.4564e-20
0.00525002
-3.65071e-19
0.00525002
1.16891e-17
0.00525002
1.04524e-17
0.00525002
7.78593e-18
0.00525002
2.87144e-18
0.00525002
-3.77141e-19
0.00525002
2.48774e-18
0.00525002
4.05941e-19
0.00525002
9.39286e-19
0.00525002
4.90332e-19
0.00525002
4.24448e-18
0.00525002
5.96481e-18
0.00525002
2.56482e-18
0.00525002
1.50535e-17
0.00525002
-2.12677e-15
0.00525002
2.55911e-14
0.00525002
1.82174e-12
0.00525002
2.68054e-10
4.67007e-08
0.00525151
0.00525002
4.86197e-19
0.00525002
9.44442e-19
0.00525002
2.33739e-18
0.00525002
-1.79063e-18
0.00525002
-5.84961e-18
0.00525002
-1.19262e-18
0.00525002
-5.27871e-18
0.00525002
-9.72394e-19
0.00525002
-2.08641e-17
0.00525002
-1.38066e-17
0.00525002
-1.02457e-17
0.00525002
-1.79275e-18
0.00525002
8.43984e-18
0.00525002
-2.35983e-18
0.00525002
8.35174e-18
0.00525002
-4.58075e-18
0.00525002
-1.03202e-17
0.00525002
-9.42578e-18
0.00525002
-3.9836e-18
0.00525002
-1.11808e-19
0.00525002
2.33188e-18
0.00525002
-1.82705e-18
0.00525002
1.16298e-18
0.00525002
4.76033e-18
0.00525002
6.42559e-18
0.00525002
-6.71909e-19
0.00525002
-8.83964e-18
0.00525002
-1.21939e-17
0.00525002
-7.21164e-18
0.00525002
1.93674e-18
0.00525002
7.75289e-18
0.00525002
-3.92346e-18
0.00525002
-7.88588e-18
0.00525002
-4.30632e-18
0.00525002
-3.5965e-18
0.00525002
3.20221e-18
0.00525002
4.19281e-18
0.00525002
4.36984e-18
0.00525002
9.67312e-19
0.00525002
1.30274e-18
0.00525002
-3.86078e-18
0.00525002
8.23316e-19
0.00525002
9.14118e-18
0.00525002
-2.78076e-15
0.00525002
3.59261e-15
0.00525002
-1.56676e-13
0.00525002
1.99908e-12
2.30085e-10
0.00525004
0.00525002
-5.13514e-20
0.00525002
1.39193e-19
0.00525002
4.14538e-18
0.00525002
5.05509e-18
0.00525002
-2.24316e-18
0.00525002
5.88688e-18
0.00525002
1.28546e-17
0.00525002
1.41455e-17
0.00525002
4.83486e-18
0.00525002
3.35425e-18
0.00525002
-6.1376e-18
0.00525002
1.06353e-17
0.00525002
1.93259e-17
0.00525002
1.91091e-17
0.00525002
2.00374e-17
0.00525002
1.36372e-17
0.00525002
1.25327e-17
0.00525002
3.89635e-19
0.00525002
7.52843e-18
0.00525002
5.10591e-18
0.00525002
8.20606e-18
0.00525002
5.21095e-18
0.00525002
-3.71805e-18
0.00525002
-2.13113e-18
0.00525002
-1.54795e-18
0.00525002
-3.82435e-18
0.00525002
-5.79371e-18
0.00525002
-6.67801e-18
0.00525002
-9.08697e-18
0.00525002
-1.15603e-17
0.00525002
-2.07557e-17
0.00525002
-1.9292e-17
0.00525002
-1.74285e-17
0.00525002
-1.58226e-17
0.00525002
-1.00695e-17
0.00525002
-4.76371e-18
0.00525002
-1.03222e-18
0.00525002
1.23307e-18
0.00525002
-3.49973e-18
0.00525002
-7.69106e-18
0.00525002
-1.46164e-17
0.00525002
-1.18957e-17
0.00525002
-8.38224e-18
0.00525002
-7.32921e-16
0.00525002
-3.9401e-15
0.00525002
-3.22093e-13
0.00525002
-4.63939e-13
7.11983e-13
0.00525002
0.00525002
-1.32815e-18
0.00525002
-2.21796e-18
0.00525002
5.44473e-18
0.00525002
1.06252e-17
0.00525002
7.55892e-18
0.00525002
6.31209e-18
0.00525002
8.07561e-18
0.00525002
2.45978e-18
0.00525002
8.17217e-18
0.00525002
6.58483e-18
0.00525002
4.88569e-18
0.00525002
1.01644e-18
0.00525002
9.85946e-19
0.00525002
4.50113e-18
0.00525002
1.5294e-17
0.00525002
1.61749e-17
0.00525002
1.77538e-17
0.00525002
1.52025e-17
0.00525002
1.57989e-17
0.00525002
1.27868e-17
0.00525002
9.35463e-18
0.00525002
6.49844e-18
0.00525002
-4.5096e-18
0.00525002
-9.38174e-18
0.00525002
-3.41185e-18
0.00525002
2.39604e-19
0.00525002
-1.31872e-18
0.00525002
-2.11674e-18
0.00525002
-1.11537e-17
0.00525002
-1.77945e-17
0.00525002
-2.05456e-17
0.00525002
-2.02204e-17
0.00525002
-1.50704e-17
0.00525002
-1.41624e-17
0.00525002
-6.18334e-18
0.00525002
-4.36391e-18
0.00525002
-4.62649e-18
0.00525002
-1.18314e-17
0.00525002
-6.81692e-18
0.00525002
-8.68717e-18
0.00525002
1.855e-18
0.00525002
-7.3658e-18
0.00525002
-7.42001e-18
0.00525002
-7.07442e-17
0.00525002
-6.86734e-16
0.00525002
-1.59318e-13
0.00525002
-6.8186e-13
-3.72979e-13
0.00525002
0.00525002
-1.2246e-18
0.00525002
-5.28379e-18
0.00525002
-2.83756e-18
0.00525002
2.80029e-18
0.00525002
1.42471e-18
0.00525002
3.80318e-19
0.00525002
2.3412e-18
0.00525002
1.85077e-19
0.00525002
-3.20009e-18
0.00525002
-6.78982e-18
0.00525002
-4.05898e-18
0.00525002
-6.08508e-18
0.00525002
-6.73561e-18
0.00525002
1.91599e-18
0.00525002
3.10861e-18
0.00525002
1.48739e-17
0.00525002
1.31595e-17
0.00525002
1.28139e-17
0.00525002
1.32374e-17
0.00525002
1.19364e-17
0.00525002
1.10114e-17
0.00525002
1.02593e-17
0.00525002
1.97359e-18
0.00525002
-2.47503e-18
0.00525002
-1.50094e-18
0.00525002
3.4686e-19
0.00525002
5.26854e-18
0.00525002
-9.49905e-19
0.00525002
-4.98564e-18
0.00525002
-1.00763e-17
0.00525002
-1.73676e-17
0.00525002
-1.39049e-17
0.00525002
-1.1357e-17
0.00525002
-1.3522e-17
0.00525002
-5.25415e-18
0.00525002
-1.99095e-18
0.00525002
6.91433e-18
0.00525002
-2.97478e-18
0.00525002
2.2404e-18
0.00525002
-2.80368e-19
0.00525002
3.37797e-18
0.00525002
1.2138e-18
0.00525002
-8.67701e-18
0.00525002
-2.08235e-17
0.00525002
-5.62565e-17
0.00525002
-4.12751e-14
0.00525002
-3.94173e-13
-5.69871e-13
0.00525002
0.00525002
5.45489e-19
0.00525002
-3.36018e-18
0.00525002
-5.32106e-18
0.00525002
-1.5599e-17
0.00525002
-1.15569e-17
0.00525002
-8.2501e-18
0.00525002
-2.85535e-18
0.00525002
-7.72494e-19
0.00525002
-1.45563e-18
0.00525002
-5.90043e-18
0.00525002
-6.15115e-18
0.00525002
-1.77809e-17
0.00525002
-6.02749e-18
0.00525002
-5.04376e-18
0.00525002
-5.5252e-18
0.00525002
1.21634e-18
0.00525002
9.74088e-18
0.00525002
2.06778e-17
0.00525002
2.1169e-17
0.00525002
1.89668e-17
0.00525002
1.65476e-17
0.00525002
3.77438e-18
0.00525002
8.20351e-19
0.00525002
2.80791e-18
0.00525002
1.25467e-20
0.00525002
4.21399e-20
0.00525002
4.73491e-19
0.00525002
-2.91803e-18
0.00525002
-4.95853e-18
0.00525002
-8.49235e-18
0.00525002
-1.05879e-17
0.00525002
-9.07342e-18
0.00525002
-5.51249e-18
0.00525002
-3.75066e-18
0.00525002
-9.91876e-19
0.00525002
4.03781e-18
0.00525002
1.30003e-17
0.00525002
1.17636e-17
0.00525002
1.80164e-18
0.00525002
-9.71547e-19
0.00525002
-3.45335e-18
0.00525002
1.18347e-17
0.00525002
1.18347e-17
0.00525002
5.15674e-18
0.00525002
-8.93789e-18
0.00525002
-2.874e-15
0.00525002
-6.47945e-14
-2.32733e-13
0.00525002
0.00525002
-1.96046e-18
0.00525002
-2.5843e-18
0.00525002
-1.81159e-19
0.00525002