/*--------------------------------*- C++ -*----------------------------------*\
| =========                 |                                                 |
| \\      /  F ield         | OpenFOAM: The Open Source CFD Toolbox           |
|  \\    /   O peration     | Version:  v1912                                 |
|   \\  /    A nd           | Website:  www.openfoam.com                      |
|    \\/     M anipulation  |                                                 |
\*---------------------------------------------------------------------------*/
FoamFile
{
    version     2.0;
    format      ascii;
    class       volVectorField;
    location    "0.03";
    object      U;
}
// * * * * * * * * * * * * * * * * * * * * * * * * * * * * * * * * * * * * * //

dimensions      [0 1 -1 0 0 0 0];


internalField   nonuniform List<vector> 
16128
(
(3 -4.20992e-16 0)
(3 -9.37735e-16 0)
(3 -3.24806e-15 0)
(3 -7.25226e-16 0)
(3 -1.37853e-15 0)
(3 -1.72322e-15 0)
(3 6.29602e-17 0)
(3 2.34757e-15 0)
(3 1.8936e-15 0)
(3 -7.06926e-16 0)
(3 -3.24919e-15 0)
(3 -2.35479e-15 0)
(3 -1.35062e-15 0)
(3 -2.72117e-15 0)
(3 -3.35447e-15 0)
(3 -4.61982e-15 0)
(3 -4.94246e-15 0)
(3 -5.88962e-15 0)
(3 -4.92417e-15 0)
(3 -2.63323e-15 0)
(3 -2.13137e-15 0)
(3 -2.02539e-15 0)
(3 -3.90655e-15 0)
(3 -5.63487e-15 0)
(3 -5.65146e-15 0)
(3 -3.93384e-15 0)
(3 -1.01397e-15 0)
(3 2.376e-15 0)
(3 5.28321e-15 0)
(3 4.97032e-15 0)
(3 5.59671e-15 0)
(3 5.72939e-15 0)
(3 3.93178e-15 0)
(3 3.77045e-15 0)
(3 8.56286e-15 0)
(3 8.97834e-15 0)
(3 7.0938e-15 0)
(3 2.96145e-15 0)
(3 3.49636e-15 0)
(3 6.68979e-15 0)
(3 1.75271e-15 0)
(3 9.23005e-16 0)
(3 -1.13791e-13 0)
(3 -2.37207e-12 0)
(3 1.14643e-10 0)
(2.99812 5.9614e-08 0)
(2.24917 1.16838e-05 0)
(0.482723 3.53025e-07 0)
(3 5.56996e-16 0)
(3 1.75703e-15 0)
(3 6.71387e-16 0)
(3 1.34251e-15 0)
(3 2.93489e-15 0)
(3 2.20218e-15 0)
(3 -1.01451e-15 0)
(3 5.04461e-16 0)
(3 2.34936e-15 0)
(3 4.52799e-15 0)
(3 1.93508e-15 0)
(3 8.07391e-17 0)
(3 -2.20366e-16 0)
(3 -2.56301e-15 0)
(3 -2.73322e-15 0)
(3 -3.19802e-15 0)
(3 -2.41355e-15 0)
(3 -9.29366e-16 0)
(3 2.65109e-15 0)
(3 5.25651e-15 0)
(3 6.98798e-15 0)
(3 6.22913e-15 0)
(3 4.49789e-15 0)
(3 1.76014e-15 0)
(3 3.43246e-15 0)
(3 3.64715e-15 0)
(3 3.25136e-15 0)
(3 8.33204e-15 0)
(3 1.76819e-14 0)
(3 1.60156e-14 0)
(3 1.75896e-14 0)
(3 2.01781e-14 0)
(3 1.44837e-14 0)
(3 1.2904e-14 0)
(3 1.3868e-14 0)
(3 1.7374e-14 0)
(3 1.57301e-14 0)
(3 9.30428e-15 0)
(3 5.65915e-15 0)
(3 5.15583e-15 0)
(3 7.07895e-15 0)
(3 6.15278e-15 0)
(3 -5.46761e-13 0)
(3 -7.66328e-12 0)
(3 -1.47964e-11 0)
(2.99812 -2.02199e-09 0)
(2.24945 6.38624e-05 0)
(0.482724 -1.6995e-06 0)
(3 7.79436e-16 0)
(3 6.76339e-16 0)
(3 1.55877e-15 0)
(3 -4.00699e-16 0)
(3 -2.99707e-15 0)
(3 -2.96021e-15 0)
(3 -6.583e-15 0)
(3 -3.5542e-15 0)
(3 4.69862e-16 0)
(3 2.10052e-15 0)
(3 1.08793e-15 0)
(3 -5.5698e-15 0)
(3 -8.17852e-15 0)
(3 -7.39686e-15 0)
(3 -3.19534e-15 0)
(3 -1.95552e-15 0)
(3 -5.36986e-16 0)
(3 1.32509e-15 0)
(3 3.28549e-15 0)
(3 3.71957e-15 0)
(3 2.6622e-15 0)
(3 -7.85411e-16 0)
(3 1.65435e-16 0)
(3 3.37015e-15 0)
(3 5.62655e-15 0)
(3 2.89234e-15 0)
(3 -5.09962e-16 0)
(3 -2.51628e-15 0)
(3 -3.04898e-15 0)
(3 5.22319e-16 0)
(3 4.15809e-15 0)
(3 3.67742e-15 0)
(3 3.45598e-15 0)
(3 3.68342e-15 0)
(3 -2.88946e-15 0)
(3 -5.55338e-15 0)
(3 -3.28772e-15 0)
(3 -2.82064e-15 0)
(3 2.66611e-16 0)
(3 -2.82253e-15 0)
(3 4.39358e-15 0)
(3 -6.91575e-15 0)
(3 -7.91164e-13 0)
(3 -1.27252e-11 0)
(3 -8.42856e-10 0)
(2.99812 -1.64158e-07 0)
(2.24973 1.23394e-05 0)
(0.482728 6.97557e-06 0)
(3 -1.91206e-15 0)
(3 -2.81523e-15 0)
(3 -3.04583e-15 0)
(3 -5.00336e-15 0)
(3 -9.21694e-15 0)
(3 -2.66146e-15 0)
(3 3.56032e-15 0)
(3 5.89414e-15 0)
(3 -5.47241e-15 0)
(3 -1.42551e-14 0)
(3 -1.51693e-14 0)
(3 -1.46977e-14 0)
(3 -1.17467e-14 0)
(3 -1.20204e-14 0)
(3 -6.2286e-15 0)
(3 -9.66305e-15 0)
(3 -9.46271e-15 0)
(3 -1.01403e-14 0)
(3 -1.20248e-14 0)
(3 -1.31666e-14 0)
(3 -1.42891e-14 0)
(3 -8.65897e-15 0)
(3 -4.70385e-15 0)
(3 -9.84958e-16 0)
(3 -4.61448e-15 0)
(3 -2.599e-15 0)
(3 -4.03965e-15 0)
(3 -4.20659e-15 0)
(3 -4.31348e-15 0)
(3 -4.13113e-15 0)
(3 -7.90796e-15 0)
(3 -9.79443e-15 0)
(3 -7.66157e-15 0)
(3 -5.38231e-15 0)
(3 -3.66658e-15 0)
(3 -4.66615e-15 0)
(3 -7.40273e-15 0)
(3 -6.59131e-15 0)
(3 -7.40118e-15 0)
(3 -9.49647e-15 0)
(3 -1.24798e-14 0)
(3 -3.76086e-14 0)
(3 -6.44464e-13 0)
(3 -1.14334e-11 0)
(3 -2.70207e-10 0)
(2.99812 -7.62909e-08 0)
(2.24972 1.59316e-06 0)
(0.482733 4.85188e-06 0)
(3 6.85875e-16 0)
(3 3.77794e-15 0)
(3 5.67885e-15 0)
(3 4.54057e-15 0)
(3 7.20101e-15 0)
(3 7.15777e-15 0)
(3 4.81265e-15 0)
(3 4.02106e-15 0)
(3 -6.93979e-15 0)
(3 -5.20102e-15 0)
(3 -1.47622e-15 0)
(3 4.01176e-15 0)
(3 3.03744e-15 0)
(3 4.81552e-17 0)
(3 -1.2994e-15 0)
(3 3.05907e-15 0)
(3 4.90438e-15 0)
(3 9.38565e-15 0)
(3 1.04034e-14 0)
(3 1.15208e-14 0)
(3 1.45962e-14 0)
(3 1.86414e-14 0)
(3 1.41994e-14 0)
(3 1.43806e-14 0)
(3 1.71444e-14 0)
(3 1.95986e-14 0)
(3 1.86624e-14 0)
(3 1.68493e-14 0)
(3 1.82277e-14 0)
(3 1.5089e-14 0)
(3 1.25208e-14 0)
(3 1.3745e-14 0)
(3 1.80432e-14 0)
(3 1.63732e-14 0)
(3 1.31577e-14 0)
(3 1.4375e-14 0)
(3 1.47111e-14 0)
(3 9.00804e-15 0)
(3 3.83707e-15 0)
(3 -1.48696e-16 0)
(3 -1.01497e-14 0)
(3 -7.85898e-16 0)
(3 -2.71858e-13 0)
(3 -5.20635e-12 0)
(3 1.36563e-10 0)
(2.99812 4.31521e-08 0)
(2.24976 2.77598e-05 0)
(0.482732 -3.17866e-06 0)
(3 -2.12019e-15 0)
(3 4.4961e-15 0)
(3 4.15999e-15 0)
(3 4.25771e-15 0)
(3 3.17571e-15 0)
(3 -2.95323e-16 0)
(3 -3.98538e-15 0)
(3 -7.07616e-16 0)
(3 2.70175e-15 0)
(3 3.1467e-15 0)
(3 -1.69559e-17 0)
(3 1.92531e-15 0)
(3 -8.24534e-16 0)
(3 5.16954e-15 0)
(3 7.15666e-15 0)
(3 1.03218e-14 0)
(3 1.2192e-14 0)
(3 1.11735e-14 0)
(3 1.14445e-14 0)
(3 1.12275e-14 0)
(3 9.58982e-15 0)
(3 6.32896e-15 0)
(3 7.32527e-15 0)
(3 9.89647e-15 0)
(3 1.19723e-14 0)
(3 6.1148e-15 0)
(3 5.18541e-15 0)
(3 3.29599e-15 0)
(3 9.1008e-16 0)
(3 1.61779e-15 0)
(3 4.11026e-15 0)
(3 2.47041e-15 0)
(3 5.55309e-16 0)
(3 1.21397e-15 0)
(3 1.4004e-15 0)
(3 -5.08229e-16 0)
(3 -2.5929e-16 0)
(3 -5.11569e-16 0)
(3 5.8198e-16 0)
(3 -1.81802e-16 0)
(3 -3.78051e-15 0)
(3 5.43607e-14 0)
(3 1.57712e-15 0)
(3 -9.48078e-13 0)
(3 8.09332e-10 0)
(2.99812 2.90964e-07 0)
(2.24989 1.83399e-06 0)
(0.482729 -3.54703e-07 0)
(3 -2.26715e-15 0)
(3 -3.84127e-15 0)
(3 -3.111e-15 0)
(3 -3.45107e-16 0)
(3 1.30099e-15 0)
(3 3.22756e-15 0)
(3 1.85876e-15 0)
(3 2.07491e-15 0)
(3 1.0828e-15 0)
(3 -1.00057e-15 0)
(3 -6.7069e-15 0)
(3 -7.80077e-15 0)
(3 -9.40239e-16 0)
(3 6.73732e-15 0)
(3 1.28387e-14 0)
(3 1.07781e-14 0)
(3 8.51365e-15 0)
(3 3.27918e-15 0)
(3 2.35483e-15 0)
(3 -4.00116e-16 0)
(3 -8.05378e-16 0)
(3 1.09425e-15 0)
(3 2.03718e-15 0)
(3 3.24097e-16 0)
(3 -2.01974e-15 0)
(3 -3.58979e-15 0)
(3 1.03978e-15 0)
(3 1.55254e-15 0)
(3 -5.81341e-16 0)
(3 -1.13521e-15 0)
(3 -4.15496e-15 0)
(3 -8.10879e-15 0)
(3 -8.64814e-15 0)
(3 -1.14011e-14 0)
(3 -1.25429e-14 0)
(3 -1.32775e-14 0)
(3 -1.1095e-14 0)
(3 -9.51208e-15 0)
(3 -5.22829e-15 0)
(3 -3.40486e-15 0)
(3 2.62517e-15 0)
(3 -1.36716e-14 0)
(3 -4.51144e-14 0)
(3 1.46599e-12 0)
(3 7.73134e-11 0)
(2.99813 3.07562e-08 0)
(2.24983 -1.38476e-05 0)
(0.482728 2.258e-06 0)
(3 1.18454e-15 0)
(3 9.28667e-16 0)
(3 6.82994e-16 0)
(3 4.09433e-15 0)
(3 8.54008e-15 0)
(3 8.88919e-15 0)
(3 6.26673e-15 0)
(3 3.46904e-15 0)
(3 4.95432e-15 0)
(3 4.87635e-15 0)
(3 1.52758e-15 0)
(3 -1.38404e-15 0)
(3 -1.11067e-15 0)
(3 6.97074e-16 0)
(3 1.93016e-16 0)
(3 2.92089e-15 0)
(3 5.95403e-15 0)
(3 7.76507e-15 0)
(3 4.15998e-15 0)
(3 6.44953e-16 0)
(3 3.31575e-18 0)
(3 5.32361e-17 0)
(3 8.25586e-17 0)
(3 6.51534e-18 0)
(3 1.15442e-16 0)
(3 1.44382e-15 0)
(3 1.00155e-15 0)
(3 -4.52021e-15 0)
(3 -7.07016e-15 0)
(3 -9.52809e-15 0)
(3 -8.31299e-15 0)
(3 -8.59025e-15 0)
(3 -4.39154e-15 0)
(3 -2.61225e-15 0)
(3 1.02021e-16 0)
(3 1.53644e-15 0)
(3 3.79608e-16 0)
(3 3.68591e-15 0)
(3 2.36676e-15 0)
(3 2.55237e-15 0)
(3 2.42178e-15 0)
(3 8.18452e-16 0)
(3 2.27989e-14 0)
(3 3.56398e-12 0)
(3 -5.64973e-11 0)
(2.99812 -3.22372e-08 0)
(2.24981 3.68958e-06 0)
(0.482727 -7.58248e-06 0)
(3 2.08554e-15 0)
(3 4.23805e-15 0)
(3 1.71897e-15 0)
(3 -3.02971e-16 0)
(3 -4.27676e-15 0)
(3 -4.43313e-15 0)
(3 -1.58246e-15 0)
(3 -3.00425e-15 0)
(3 1.35174e-15 0)
(3 2.29982e-15 0)
(3 1.11168e-14 0)
(3 2.08308e-14 0)
(3 2.03997e-14 0)
(3 1.9878e-14 0)
(3 9.96033e-15 0)
(3 4.33466e-15 0)
(3 1.94422e-16 0)
(3 -8.37659e-15 0)
(3 -8.98869e-15 0)
(3 -1.03752e-14 0)
(3 -8.96315e-15 0)
(3 -9.35596e-15 0)
(3 -8.13265e-15 0)
(3 -4.81107e-15 0)
(3 -6.53949e-15 0)
(3 -8.00099e-15 0)
(3 -1.03183e-14 0)
(3 -1.62937e-14 0)
(3 -1.82455e-14 0)
(3 -1.82543e-14 0)
(3 -1.4579e-14 0)
(3 -1.26193e-14 0)
(3 -1.33711e-14 0)
(3 -7.11313e-15 0)
(3 -3.31373e-15 0)
(3 -1.9494e-15 0)
(3 -2.46757e-15 0)
(3 -3.84066e-15 0)
(3 -8.27204e-15 0)
(3 -6.08174e-15 0)
(3 -1.11449e-14 0)
(3 1.15552e-14 0)
(3 1.4206e-13 0)
(3 5.25186e-12 0)
(3 4.34557e-10 0)
(2.99812 1.72763e-07 0)
(2.24978 -6.91072e-06 0)
(0.482722 -1.38752e-05 0)
(3 9.05518e-17 0)
(3 -5.10871e-15 0)
(3 -5.90933e-15 0)
(3 -8.38506e-15 0)
(3 -9.75551e-15 0)
(3 -1.05711e-14 0)
(3 -1.14222e-14 0)
(3 -1.1249e-14 0)
(3 -8.79244e-15 0)
(3 -2.54262e-15 0)
(3 1.30743e-15 0)
(3 8.78913e-15 0)
(3 1.07621e-14 0)
(3 8.7782e-15 0)
(3 8.33634e-15 0)
(3 6.57191e-15 0)
(3 2.44488e-15 0)
(3 -5.12078e-15 0)
(3 -6.94188e-15 0)
(3 -9.20386e-15 0)
(3 -1.13053e-14 0)
(3 -1.188e-14 0)
(3 -1.72636e-14 0)
(3 -1.94416e-14 0)
(3 -1.98442e-14 0)
(3 -1.88355e-14 0)
(3 -1.53301e-14 0)
(3 -1.23787e-14 0)
(3 -1.36864e-14 0)
(3 -1.46991e-14 0)
(3 -1.44259e-14 0)
(3 -1.71395e-14 0)
(3 -1.73814e-14 0)
(3 -1.36767e-14 0)
(3 -1.83825e-14 0)
(3 -1.97046e-14 0)
(3 -1.88245e-14 0)
(3 -1.70929e-14 0)
(3 -1.32264e-14 0)
(3 -3.11764e-15 0)
(3 -3.72369e-15 0)
(3 -2.34558e-14 0)
(3 1.31681e-13 0)
(3 2.57695e-12 0)
(3 6.68233e-11 0)
(2.99813 4.49667e-08 0)
(2.24954 -1.46056e-05 0)
(0.48274 4.08861e-05 0)
(3 3.51545e-16 0)
(3 -2.55907e-15 0)
(3 -2.17472e-15 0)
(3 6.09237e-16 0)
(3 4.53871e-16 0)
(3 8.85634e-16 0)
(3 -2.23356e-15 0)
(3 -2.9297e-15 0)
(3 -3.89707e-15 0)
(3 -1.94436e-15 0)
(3 -3.24243e-15 0)
(3 -1.15611e-14 0)
(3 -1.15364e-14 0)
(3 -8.82522e-15 0)
(3 -7.48498e-15 0)
(3 -1.61402e-15 0)
(3 9.0322e-15 0)
(3 1.35348e-14 0)
(3 1.41128e-14 0)
(3 1.44496e-14 0)
(3 1.23717e-14 0)
(3 5.78387e-15 0)
(3 -1.98156e-15 0)
(3 -4.64578e-15 0)
(3 -1.17848e-14 0)
(3 -1.17779e-14 0)
(3 -1.01106e-14 0)
(3 -8.11805e-15 0)
(3 -7.07358e-15 0)
(3 -3.8334e-15 0)
(3 -3.84868e-15 0)
(3 -2.0261e-15 0)
(3 -1.8251e-15 0)
(3 -8.05197e-15 0)
(3 -7.61863e-15 0)
(3 -9.73497e-15 0)
(3 -9.25764e-15 0)
(3 -6.71637e-15 0)
(3 -3.53712e-15 0)
(3 -3.65218e-15 0)
(3 1.10589e-15 0)
(3 1.55687e-15 0)
(3 1.22747e-13 0)
(3 1.43571e-12 0)
(3 -1.66541e-10 0)
(2.99813 1.30228e-08 0)
(2.25069 0.000119658 0)
(0.483242 0.00186273 0)
(3 -3.07273e-16 0)
(3 1.66116e-17 0)
(3 1.54252e-15 0)
(3 1.04292e-15 0)
(3 1.02943e-15 0)
(3 -5.7779e-16 0)
(3 -3.09268e-15 0)
(3 -7.88668e-15 0)
(3 -1.08665e-14 0)
(3 -8.63646e-15 0)
(3 -8.13605e-15 0)
(3 -7.64057e-15 0)
(3 -5.10845e-15 0)
(3 -4.28153e-15 0)
(3 -5.46728e-15 0)
(3 -5.85997e-15 0)
(3 -5.74546e-15 0)
(3 -5.00571e-15 0)
(3 -2.55732e-15 0)
(3 1.34328e-15 0)
(3 4.78239e-15 0)
(3 6.39215e-15 0)
(3 4.88112e-15 0)
(3 4.55605e-15 0)
(3 8.21189e-15 0)
(3 8.06402e-15 0)
(3 8.52338e-15 0)
(3 1.10952e-14 0)
(3 1.45251e-14 0)
(3 1.60022e-14 0)
(3 1.04215e-14 0)
(3 7.85633e-15 0)
(3 2.69243e-15 0)
(3 7.30558e-16 0)
(3 2.78993e-15 0)
(3 3.10136e-15 0)
(3 1.06954e-15 0)
(3 3.38328e-15 0)
(3 3.7271e-15 0)
(3 1.71411e-15 0)
(3 -3.42505e-15 0)
(3 -1.5111e-14 0)
(3 7.70899e-14 0)
(3 4.18634e-12 0)
(3 1.94925e-09 0)
(2.99816 3.09507e-06 0)
(2.26602 0.00128944 0)
(0.493198 0.0197713 0)
(3 -1.82398e-15 0)
(3 1.1238e-15 0)
(3 -1.20849e-16 0)
(3 -2.08018e-15 0)
(3 -4.5476e-15 0)
(3 -1.04756e-14 0)
(3 -8.02426e-15 0)
(3 -6.75994e-15 0)
(3 -4.83598e-15 0)
(3 -7.73816e-15 0)
(3 -1.21919e-14 0)
(3 -1.10942e-14 0)
(3 -1.1675e-14 0)
(3 -1.26241e-14 0)
(3 -1.35412e-14 0)
(3 -1.33411e-14 0)
(3 -1.39108e-14 0)
(3 -9.04341e-15 0)
(3 -5.28944e-15 0)
(3 -4.58308e-16 0)
(3 -2.69688e-15 0)
(3 -4.42729e-16 0)
(3 2.30581e-15 0)
(3 3.01513e-15 0)
(3 1.69468e-15 0)
(3 1.73567e-15 0)
(3 4.20788e-15 0)
(3 5.96377e-15 0)
(3 4.52883e-15 0)
(3 -2.20759e-15 0)
(3 -1.25167e-15 0)
(3 -1.11094e-16 0)
(3 1.82313e-15 0)
(3 6.61154e-15 0)
(3 5.45666e-15 0)
(3 7.13399e-15 0)
(3 4.07414e-15 0)
(3 7.44519e-16 0)
(3 2.76211e-16 0)
(3 -3.42977e-16 0)
(3 -2.07186e-16 0)
(3 -1.38406e-15 0)
(3 7.30176e-14 0)
(3 2.90921e-11 0)
(3 1.1812e-08 0)
(2.99833 1.73276e-05 0)
(2.33268 0.00382415 0)
(0.509297 0.0949453 0)
(3 -2.56676e-16 0)
(3 -5.56034e-16 0)
(3 -2.02896e-15 0)
(3 5.3811e-15 0)
(3 8.62094e-15 0)
(3 6.45629e-15 0)
(3 2.55131e-15 0)
(3 2.78083e-15 0)
(3 1.89261e-15 0)
(3 -9.51348e-16 0)
(3 1.01945e-16 0)
(3 -8.75411e-16 0)
(3 -3.85355e-15 0)
(3 -5.09633e-15 0)
(3 -5.62916e-15 0)
(3 -4.76298e-15 0)
(3 -2.89517e-15 0)
(3 9.14019e-16 0)
(3 4.5736e-15 0)
(3 2.4405e-15 0)
(3 -9.58648e-16 0)
(3 -3.18958e-15 0)
(3 -3.76905e-15 0)
(3 -8.13472e-16 0)
(3 1.84684e-15 0)
(3 -4.07021e-16 0)
(3 -2.04513e-15 0)
(3 -5.28739e-15 0)
(3 -5.21773e-15 0)
(3 -4.75565e-15 0)
(3 -6.67596e-15 0)
(3 -3.28478e-15 0)
(3 -1.53465e-15 0)
(3 -2.2502e-15 0)
(3 -2.69209e-15 0)
(3 -1.60036e-15 0)
(3 5.35149e-16 0)
(3 -1.31925e-15 0)
(3 -1.94142e-15 0)
(3 -2.8984e-15 0)
(3 -2.76991e-15 0)
(3 1.05107e-14 0)
(3 8.20591e-14 0)
(3 7.6058e-11 0)
(3 1.808e-08 0)
(2.99872 4.00026e-05 0)
(2.48845 8.12042e-05 0)
(0.708732 0.249448 0)
(3 1.69509e-15 0)
(3 -2.05607e-15 0)
(3 -1.37654e-15 0)
(3 -3.90905e-15 0)
(3 4.1281e-15 0)
(3 6.24892e-15 0)
(3 7.40339e-15 0)
(3 7.71759e-15 0)
(3 6.33829e-15 0)
(3 7.62728e-15 0)
(3 6.25587e-15 0)
(3 4.89169e-15 0)
(3 3.64839e-15 0)
(3 4.36039e-15 0)
(3 6.72767e-15 0)
(3 7.09852e-15 0)
(3 7.54152e-15 0)
(3 1.04159e-14 0)
(3 9.3634e-15 0)
(3 6.56418e-15 0)
(3 7.42575e-15 0)
(3 2.92308e-15 0)
(3 -3.32948e-15 0)
(3 -7.80868e-15 0)
(3 -5.38244e-15 0)
(3 -2.55302e-15 0)
(3 -7.50293e-15 0)
(3 -1.02714e-14 0)
(3 -6.97053e-15 0)
(3 -3.97451e-15 0)
(3 -5.4519e-15 0)
(3 -8.46956e-15 0)
(3 -9.19304e-15 0)
(3 -7.81356e-15 0)
(3 -7.66602e-15 0)
(3 -9.40242e-15 0)
(3 -6.2029e-15 0)
(3 -5.69165e-15 0)
(3 -2.03528e-15 0)
(3 -2.54536e-15 0)
(3 2.30372e-15 0)
(3 -6.57503e-15 0)
(3 1.67966e-14 0)
(3 1.81972e-10 0)
(3 -1.26949e-08 0)
(2.99919 6.48289e-05 0)
(2.6618 -0.00974878 0)
(0.690452 0.441335 0)
(3 2.62297e-15 0)
(3 1.12119e-15 0)
(3 -4.34804e-15 0)
(3 -4.94176e-15 0)
(3 -7.79487e-15 0)
(3 -7.66859e-15 0)
(3 1.29857e-15 0)
(3 1.11824e-15 0)
(3 1.87548e-15 0)
(3 3.87733e-15 0)
(3 5.52961e-15 0)
(3 6.31991e-15 0)
(3 8.44346e-15 0)
(3 1.01264e-14 0)
(3 9.39899e-15 0)
(3 7.87765e-15 0)
(3 3.56178e-15 0)
(3 -3.64674e-16 0)
(3 -4.4576e-15 0)
(3 -4.90887e-15 0)
(3 5.88278e-16 0)
(3 6.24286e-15 0)
(3 1.45109e-14 0)
(3 1.42189e-14 0)
(3 5.2597e-15 0)
(3 5.9556e-15 0)
(3 5.94146e-15 0)
(3 5.51736e-15 0)
(3 3.01354e-15 0)
(3 3.57538e-15 0)
(3 5.3347e-15 0)
(3 6.85979e-15 0)
(3 4.64599e-15 0)
(3 4.75461e-15 0)
(3 3.99995e-15 0)
(3 4.21392e-16 0)
(3 -1.93921e-15 0)
(3 -2.08098e-15 0)
(3 -1.99085e-15 0)
(3 -3.00743e-15 0)
(3 -2.61659e-15 0)
(3 4.78577e-15 0)
(3 3.39297e-14 0)
(3 2.66764e-10 0)
(3 -3.69461e-08 0)
(2.99964 6.86704e-05 0)
(2.86581 -0.00928484 0)
(1.42852 0.866257 0)
(3 -1.25398e-15 0)
(3 -3.46876e-15 0)
(3 -5.4806e-16 0)
(3 2.98124e-16 0)
(3 1.15401e-15 0)
(3 -7.8291e-16 0)
(3 -9.96606e-16 0)
(3 3.03106e-16 0)
(3 6.10002e-16 0)
(3 -4.19214e-15 0)
(3 -5.67459e-16 0)
(3 2.19207e-15 0)
(3 3.99337e-15 0)
(3 4.76166e-15 0)
(3 1.90103e-15 0)
(3 6.58042e-18 0)
(3 -1.34794e-15 0)
(3 -7.30072e-15 0)
(3 -1.49363e-14 0)
(3 -1.57999e-14 0)
(3 -1.77797e-14 0)
(3 -1.67976e-14 0)
(3 -5.10637e-15 0)
(3 3.61185e-15 0)
(3 7.9269e-15 0)
(3 9.24583e-15 0)
(3 9.17881e-15 0)
(3 3.39801e-15 0)
(3 -2.59931e-16 0)
(3 3.04804e-15 0)
(3 2.79536e-15 0)
(3 3.44986e-15 0)
(3 2.80365e-15 0)
(3 8.75047e-16 0)
(3 2.48375e-15 0)
(3 3.70509e-15 0)
(3 -2.99219e-16 0)
(3 -1.72442e-15 0)
(3 -1.86117e-15 0)
(3 -8.28948e-16 0)
(3 -3.4575e-15 0)
(3 1.05264e-14 0)
(3 1.0983e-13 0)
(3 2.36432e-10 0)
(3 -1.93773e-08 0)
(2.99988 3.5286e-05 0)
(2.96776 -0.00317997 0)
(1.85042 1.23882 0)
(3 -1.44296e-15 0)
(3 3.85776e-15 0)
(3 7.28457e-15 0)
(3 4.83927e-15 0)
(3 6.88414e-15 0)
(3 7.10767e-15 0)
(3 1.74872e-15 0)
(3 2.16411e-15 0)
(3 2.786e-15 0)
(3 7.41609e-15 0)
(3 4.07887e-15 0)
(3 4.15587e-15 0)
(3 3.92815e-15 0)
(3 4.77723e-15 0)
(3 5.12539e-15 0)
(3 4.41091e-15 0)
(3 -1.74559e-15 0)
(3 -9.16662e-15 0)
(3 -1.19945e-14 0)
(3 -8.17537e-15 0)
(3 -6.81519e-16 0)
(3 -6.92154e-15 0)
(3 -7.41795e-15 0)
(3 -8.21721e-15 0)
(3 -7.93598e-15 0)
(3 -4.37566e-15 0)
(3 -9.13951e-16 0)
(3 -1.08295e-15 0)
(3 9.01109e-16 0)
(3 1.48208e-15 0)
(3 2.24646e-15 0)
(3 1.16016e-15 0)
(3 3.86734e-15 0)
(3 2.95983e-15 0)
(3 2.68682e-16 0)
(3 -5.98319e-16 0)
(3 5.79105e-16 0)
(3 -2.89518e-15 0)
(3 -5.09561e-15 0)
(3 -4.15947e-15 0)
(3 -2.57195e-15 0)
(3 -1.36033e-14 0)
(3 9.51862e-14 0)
(3 8.48996e-11 0)
(3 1.03262e-08 0)
(2.99997 1.0276e-05 0)
(2.99265 -0.000170714 0)
(2.37202 0.577691 0)
(3 -1.18398e-15 0)
(3 4.43526e-15 0)
(3 2.6378e-15 0)
(3 3.31756e-15 0)
(3 4.75629e-15 0)
(3 7.23731e-15 0)
(3 4.06754e-15 0)
(3 3.81716e-15 0)
(3 3.5692e-15 0)
(3 5.51244e-15 0)
(3 6.22418e-15 0)
(3 1.06245e-15 0)
(3 -3.75876e-15 0)
(3 -5.22396e-15 0)
(3 -2.61576e-15 0)
(3 -2.5712e-15 0)
(3 -9.73442e-16 0)
(3 -7.73865e-15 0)
(3 -6.34147e-15 0)
(3 -5.92358e-15 0)
(3 -5.19642e-15 0)
(3 -4.01219e-15 0)
(3 -5.02978e-15 0)
(3 -5.37396e-15 0)
(3 -2.58265e-15 0)
(3 -2.67462e-15 0)
(3 -3.08294e-15 0)
(3 3.24067e-16 0)
(3 2.61658e-15 0)
(3 3.60555e-15 0)
(3 7.12724e-15 0)
(3 8.61482e-15 0)
(3 1.06209e-14 0)
(3 9.06965e-15 0)
(3 5.61788e-15 0)
(3 8.12182e-16 0)
(3 4.22614e-15 0)
(3 4.3464e-15 0)
(3 4.21801e-15 0)
(3 8.60137e-16 0)
(3 1.51559e-15 0)
(3 -3.07076e-15 0)
(3 5.66718e-15 0)
(3 2.66438e-11 0)
(3 3.46353e-09 0)
(2.99999 1.43733e-06 0)
(2.99895 0.000227841 0)
(2.78875 0.0386433 0)
(3 -2.97063e-15 0)
(3 -4.39823e-15 0)
(3 -8.27345e-15 0)
(3 -9.68517e-15 0)
(3 -9.6038e-15 0)
(3 -5.65449e-15 0)
(3 3.73269e-15 0)
(3 8.5373e-15 0)
(3 9.21724e-15 0)
(3 9.13938e-16 0)
(3 -6.9506e-15 0)
(3 -1.10381e-14 0)
(3 -1.40073e-14 0)
(3 -1.23812e-14 0)
(3 -9.67969e-15 0)
(3 -7.33037e-15 0)
(3 -3.35546e-15 0)
(3 -4.0888e-15 0)
(3 -3.9028e-15 0)
(3 -6.48273e-15 0)
(3 -1.03998e-14 0)
(3 -8.23724e-15 0)
(3 -6.74497e-15 0)
(3 -8.17304e-15 0)
(3 -1.15631e-14 0)
(3 -1.39571e-14 0)
(3 -1.60957e-14 0)
(3 -6.76351e-15 0)
(3 -2.9346e-15 0)
(3 -3.08924e-15 0)
(3 -1.10661e-14 0)
(3 -7.03943e-15 0)
(3 -6.69988e-15 0)
(3 -4.23587e-15 0)
(3 3.42931e-15 0)
(3 3.15923e-15 0)
(3 1.85397e-15 0)
(3 4.50583e-15 0)
(3 1.56594e-15 0)
(3 -4.64743e-17 0)
(3 -1.95237e-15 0)
(3 -8.29249e-15 0)
(3 -1.28886e-14 0)
(3 1.28328e-12 0)
(3 7.32193e-10 0)
(3 1.07761e-07 0)
(2.99992 2.04322e-05 0)
(2.97601 0.00351194 0)
(3 1.45015e-15 0)
(3 -2.06743e-15 0)
(3 -4.36521e-15 0)
(3 -4.95025e-15 0)
(3 -5.40808e-15 0)
(3 -6.87072e-15 0)
(3 -9.53002e-15 0)
(3 -1.42457e-14 0)
(3 -8.86057e-15 0)
(3 -6.08137e-15 0)
(3 -1.73344e-15 0)
(3 -1.83216e-15 0)
(3 -3.28753e-15 0)
(3 -6.92405e-15 0)
(3 -9.79571e-15 0)
(3 -6.6595e-15 0)
(3 -6.45453e-15 0)
(3 -4.48688e-15 0)
(3 -7.9244e-15 0)
(3 -8.75579e-15 0)
(3 -7.6228e-15 0)
(3 -5.06103e-15 0)
(3 -4.80168e-15 0)
(3 -5.85616e-15 0)
(3 -1.14198e-14 0)
(3 -3.41201e-15 0)
(3 2.67931e-15 0)
(3 5.33129e-15 0)
(3 1.44946e-15 0)
(3 -7.88099e-16 0)
(3 1.86619e-15 0)
(3 4.87603e-15 0)
(3 4.37115e-15 0)
(3 2.5588e-15 0)
(3 -5.8599e-16 0)
(3 -2.39662e-17 0)
(3 -1.79225e-15 0)
(3 7.93244e-16 0)
(3 -4.19289e-16 0)
(3 1.83131e-15 0)
(3 2.17547e-15 0)
(3 3.82856e-16 0)
(3 1.36051e-15 0)
(3 -1.37819e-12 0)
(3 3.16372e-11 0)
(3 5.65978e-09 0)
(3 6.63961e-07 0)
(2.99937 0.000158876 0)
(3 5.25012e-16 0)
(3 8.95794e-16 0)
(3 4.69073e-16 0)
(3 -9.00498e-16 0)
(3 -3.03538e-15 0)
(3 -4.93468e-15 0)
(3 -2.10891e-14 0)
(3 -2.38532e-14 0)
(3 -1.53183e-14 0)
(3 -1.14851e-14 0)
(3 -5.03302e-15 0)
(3 -3.73793e-15 0)
(3 1.02359e-15 0)
(3 -2.91636e-15 0)
(3 -1.42681e-14 0)
(3 -1.68254e-14 0)
(3 -1.56715e-14 0)
(3 -9.9725e-15 0)
(3 -4.50777e-15 0)
(3 4.99749e-17 0)
(3 -8.36059e-16 0)
(3 -1.93835e-15 0)
(3 -7.77938e-16 0)
(3 3.72007e-16 0)
(3 2.26384e-15 0)
(3 3.87262e-15 0)
(3 1.31126e-15 0)
(3 -4.05351e-15 0)
(3 -4.021e-15 0)
(3 3.00429e-15 0)
(3 8.76309e-15 0)
(3 5.06802e-15 0)
(3 3.41326e-15 0)
(3 1.0551e-15 0)
(3 8.28856e-16 0)
(3 3.77446e-15 0)
(3 2.39976e-15 0)
(3 -5.50633e-16 0)
(3 8.67407e-16 0)
(3 2.67291e-15 0)
(3 6.40274e-15 0)
(3 7.72334e-15 0)
(3 9.56068e-15 0)
(3 -1.22247e-12 0)
(3 2.22141e-12 0)
(3 -5.04254e-11 0)
(3 1.32779e-08 0)
(2.99999 1.54653e-06 0)
(3 1.40803e-16 0)
(3 -2.07256e-16 0)
(3 1.49341e-15 0)
(3 -1.80286e-15 0)
(3 -3.17483e-15 0)
(3 1.7998e-15 0)
(3 4.9471e-15 0)
(3 4.62357e-15 0)
(3 1.05179e-15 0)
(3 -1.57955e-15 0)
(3 -5.6394e-15 0)
(3 2.03922e-15 0)
(3 7.54337e-15 0)
(3 9.63568e-15 0)
(3 1.0297e-14 0)
(3 4.53308e-15 0)
(3 7.11481e-16 0)
(3 -2.2754e-15 0)
(3 -3.92011e-16 0)
(3 -3.58723e-16 0)
(3 3.18339e-15 0)
(3 3.13742e-15 0)
(3 3.93872e-15 0)
(3 6.42998e-15 0)
(3 5.00435e-15 0)
(3 -4.27682e-15 0)
(3 -1.25698e-14 0)
(3 -9.88363e-15 0)
(3 -4.18741e-15 0)
(3 -3.94368e-15 0)
(3 -9.651e-15 0)
(3 -1.14374e-14 0)
(3 -1.41203e-14 0)
(3 -1.25373e-14 0)
(3 -6.06113e-15 0)
(3 -8.61287e-16 0)
(3 2.14963e-15 0)
(3 4.46004e-15 0)
(3 5.09135e-16 0)
(3 -1.02301e-15 0)
(3 -4.84024e-15 0)
(3 -3.92364e-15 0)
(3 -5.19583e-15 0)
(3 -5.21038e-13 0)
(3 7.71892e-13 0)
(3 -1.08214e-10 0)
(3 -2.83376e-10 0)
(3 8.07887e-09 0)
(3 -3.04109e-16 0)
(3 2.51852e-16 0)
(3 3.54704e-15 0)
(3 6.25202e-15 0)
(3 3.43304e-15 0)
(3 4.08533e-15 0)
(3 8.20132e-15 0)
(3 1.06352e-14 0)
(3 8.43643e-15 0)
(3 8.04063e-15 0)
(3 8.5648e-15 0)
(3 1.18216e-14 0)
(3 1.43254e-14 0)
(3 1.2029e-14 0)
(3 1.14345e-14 0)
(3 9.94872e-15 0)
(3 1.25994e-14 0)
(3 1.16212e-14 0)
(3 1.031e-14 0)
(3 7.01192e-15 0)
(3 6.26629e-15 0)
(3 2.54365e-15 0)
(3 -4.04936e-15 0)
(3 -5.73147e-15 0)
(3 -1.90212e-15 0)
(3 -1.71144e-16 0)
(3 -2.01378e-15 0)
(3 -1.73427e-15 0)
(3 -6.52027e-15 0)
(3 -1.16327e-14 0)
(3 -1.24607e-14 0)
(3 -1.08596e-14 0)
(3 -8.7969e-15 0)
(3 -7.40443e-15 0)
(3 -4.03095e-15 0)
(3 -3.5466e-15 0)
(3 -1.82693e-15 0)
(3 -3.77662e-15 0)
(3 -5.01158e-15 0)
(3 -8.13803e-15 0)
(3 -1.15702e-14 0)
(3 -8.64816e-15 0)
(3 -4.00311e-15 0)
(3 -6.77898e-14 0)
(3 -8.60154e-13 0)
(3 -2.98835e-11 0)
(3 -2.74152e-10 0)
(3 -3.84623e-10 0)
(3 -1.08708e-15 0)
(3 -3.05112e-15 0)
(3 2.10127e-15 0)
(3 5.06733e-15 0)
(3 6.56664e-15 0)
(3 2.39948e-15 0)
(3 1.36321e-15 0)
(3 6.2068e-16 0)
(3 1.03229e-15 0)
(3 -8.29634e-16 0)
(3 -8.80811e-16 0)
(3 -1.18228e-15 0)
(3 -9.80275e-16 0)
(3 1.68124e-15 0)
(3 6.73566e-15 0)
(3 9.97507e-15 0)
(3 7.74539e-15 0)
(3 5.78147e-15 0)
(3 5.80134e-15 0)
(3 5.72627e-15 0)
(3 4.43265e-15 0)
(3 5.83032e-15 0)
(3 -6.2406e-16 0)
(3 -3.9587e-15 0)
(3 -2.58162e-15 0)
(3 6.59456e-16 0)
(3 2.74619e-15 0)
(3 -9.06505e-16 0)
(3 -5.31614e-15 0)
(3 -8.70192e-15 0)
(3 -1.12338e-14 0)
(3 -1.18183e-14 0)
(3 -8.50533e-15 0)
(3 -9.34614e-15 0)
(3 -4.08793e-15 0)
(3 -2.42312e-15 0)
(3 -4.34095e-15 0)
(3 -7.36254e-15 0)
(3 -1.17859e-15 0)
(3 -7.49203e-16 0)
(3 2.76394e-15 0)
(3 -1.14478e-15 0)
(3 -6.31555e-15 0)
(3 -1.60233e-14 0)
(3 -1.49448e-13 0)
(3 -1.63799e-11 0)
(3 -1.41775e-10 0)
(3 -2.13515e-10 0)
(3 1.9624e-15 0)
(3 -2.5283e-15 0)
(3 -4.98765e-15 0)
(3 -1.02488e-14 0)
(3 -4.22433e-15 0)
(3 -2.36537e-15 0)
(3 1.30114e-15 0)
(3 -2.61766e-15 0)
(3 -3.79423e-15 0)
(3 -5.77969e-15 0)
(3 -3.48485e-15 0)
(3 -1.02921e-14 0)
(3 -1.40648e-14 0)
(3 -8.49616e-15 0)
(3 -4.08798e-15 0)
(3 4.13158e-15 0)
(3 6.84346e-15 0)
(3 1.23058e-14 0)
(3 1.20906e-14 0)
(3 1.00758e-14 0)
(3 8.11508e-15 0)
(3 4.30387e-15 0)
(3 2.30488e-15 0)
(3 4.264e-15 0)
(3 4.08636e-16 0)
(3 9.03855e-17 0)
(3 3.38922e-15 0)
(3 7.06472e-16 0)
(3 -2.79498e-15 0)
(3 -5.51934e-15 0)
(3 -7.80322e-15 0)
(3 -6.64975e-15 0)
(3 -4.55259e-15 0)
(3 -4.59179e-15 0)
(3 -1.18001e-15 0)
(3 7.386e-16 0)
(3 7.63939e-15 0)
(3 8.5153e-15 0)
(3 2.01434e-15 0)
(3 -4.6817e-16 0)
(3 1.10756e-15 0)
(3 3.61628e-15 0)
(3 -4.42864e-16 0)
(3 -4.49908e-15 0)
(3 -8.77865e-15 0)
(3 -3.1606e-12 0)
(3 -2.93227e-11 0)
(3 -9.35933e-11 0)
(3 -8.43802e-16 0)
(3 -1.61338e-15 0)
(3 -1.13828e-15 0)
(3 -7.42304e-15 0)
(3 -9.1624e-15 0)
(3 -1.00399e-14 0)
(3 -4.5785e-15 0)
(3 8.21354e-16 0)
(3 3.3846e-15 0)
(3 -1.68665e-15 0)
(3 -3.81474e-15 0)
(3 -9.08506e-15 0)
(3 1.76729e-15 0)
(3 2.46913e-15 0)
(3 -1.48177e-15 0)
(3 -2.32759e-15 0)
(3 2.39611e-15 0)
(3 5.70364e-15 0)
(3 7.50654e-15 0)
(3 8.88501e-15 0)
(3 1.08783e-14 0)
(3 1.24814e-15 0)
(3 -8.94469e-16 0)
(3 -4.86788e-16 0)
(3 -5.34617e-16 0)
(3 -4.49802e-16 0)
(3 -1.74234e-15 0)
(3 -2.68762e-15 0)
(3 -1.82965e-15 0)
(3 -1.70051e-15 0)
(3 -2.29328e-15 0)
(3 -4.30973e-15 0)
(3 -2.08009e-15 0)
(3 -5.45874e-16 0)
(3 -6.57474e-16 0)
(3 2.90313e-15 0)
(3 5.09629e-15 0)
(3 6.97389e-15 0)
(3 1.95716e-15 0)
(3 2.63379e-16 0)
(3 -5.0628e-15 0)
(3 8.29037e-15 0)
(3 1.41818e-14 0)
(3 1.49498e-14 0)
(3 1.61346e-14 0)
(3 -1.3746e-13 0)
(3 -2.93645e-12 0)
(3 -1.37987e-11 0)
(3 -1.18394e-15 0)
(3 -1.11385e-15 0)
(3 9.07635e-16 0)
(3 3.05288e-15 0)
(3 5.39641e-15 0)
(3 6.44009e-15 0)
(3 6.9263e-15 0)
(3 4.63639e-15 0)
(3 2.78267e-15 0)
(3 9.82265e-16 0)
(3 1.42458e-15 0)
(3 3.98694e-15 0)
(3 4.11138e-15 0)
(3 -1.36133e-15 0)
(3 -3.19518e-15 0)
(3 -4.04249e-15 0)
(3 -9.99318e-15 0)
(3 -1.23785e-14 0)
(3 -1.43604e-14 0)
(3 -1.31537e-14 0)
(3 -1.07843e-14 0)
(3 -6.75428e-15 0)
(3 -6.83824e-15 0)
(3 -8.64189e-15 0)
(3 -1.06442e-14 0)
(3 -9.82558e-15 0)
(3 -1.01003e-14 0)
(3 -7.8082e-15 0)
(3 -4.52558e-15 0)
(3 -4.14739e-15 0)
(3 1.02294e-15 0)
(3 -1.13426e-15 0)
(3 -1.68567e-15 0)
(3 -2.60457e-15 0)
(3 -6.72477e-15 0)
(3 -6.92479e-15 0)
(3 -9.39792e-15 0)
(3 -8.03493e-15 0)
(3 2.67193e-15 0)
(3 1.5419e-15 0)
(3 -4.17364e-15 0)
(3 -6.84308e-15 0)
(3 -7.70506e-15 0)
(3 -5.31674e-15 0)
(3 -6.22389e-16 0)
(3 -1.62686e-15 0)
(3 -8.38407e-14 0)
(3 -6.68709e-13 0)
(3 2.60639e-15 0)
(3 8.42164e-15 0)
(3 6.21661e-15 0)
(3 6.53027e-15 0)
(3 5.33931e-15 0)
(3 5.8292e-15 0)
(3 2.50148e-15 0)
(3 2.48918e-15 0)
(3 1.99301e-15 0)
(3 2.21342e-15 0)
(3 1.2951e-15 0)
(3 -2.23847e-15 0)
(3 -5.82294e-15 0)
(3 -1.30184e-14 0)
(3 -1.12021e-14 0)
(3 -8.03724e-15 0)
(3 -4.36685e-15 0)
(3 6.3101e-16 0)
(3 -1.36181e-15 0)
(3 -5.75873e-15 0)
(3 -8.7397e-15 0)
(3 -1.17202e-14 0)
(3 -1.49534e-14 0)
(3 -1.50027e-14 0)
(3 -1.11241e-14 0)
(3 -9.71405e-15 0)
(3 -9.40453e-15 0)
(3 -9.11575e-15 0)
(3 -6.25498e-15 0)
(3 -4.20812e-16 0)
(3 5.84306e-15 0)
(3 9.0357e-15 0)
(3 3.88353e-15 0)
(3 -1.62966e-15 0)
(3 -7.45812e-15 0)
(3 -8.50605e-15 0)
(3 -5.13636e-15 0)
(3 -5.24881e-15 0)
(3 -1.83298e-15 0)
(3 -7.88439e-16 0)
(3 1.92446e-15 0)
(3 -9.42389e-17 0)
(3 -3.33485e-15 0)
(3 -4.37921e-15 0)
(3 -4.93034e-15 0)
(3 -6.38032e-15 0)
(3 -7.31417e-15 0)
(3 -1.35124e-14 0)
(3 1.99615e-16 0)
(3 -1.02233e-15 0)
(3 -4.27318e-16 0)
(3 -1.71592e-16 0)
(3 -1.45123e-15 0)
(3 -2.30489e-15 0)
(3 8.68472e-16 0)
(3 3.73503e-15 0)
(3 6.37849e-15 0)
(3 6.15089e-15 0)
(3 -1.31557e-15 0)
(3 -5.29141e-15 0)
(3 -4.43241e-15 0)
(3 -3.82361e-15 0)
(3 -7.07111e-16 0)
(3 -1.45935e-16 0)
(3 -1.85165e-15 0)
(3 -3.62051e-15 0)
(3 -3.27639e-15 0)
(3 -5.36753e-15 0)
(3 -2.67524e-15 0)
(3 -2.13994e-15 0)
(3 -3.73893e-15 0)
(3 -3.75821e-15 0)
(3 -5.44025e-15 0)
(3 -5.61026e-15 0)
(3 -1.76723e-15 0)
(3 -1.10695e-15 0)
(3 -3.85158e-15 0)
(3 1.36007e-15 0)
(3 2.98734e-15 0)
(3 2.17924e-15 0)
(3 8.01603e-16 0)
(3 -9.72378e-16 0)
(3 -2.90646e-15 0)
(3 -5.03093e-15 0)
(3 -6.27945e-15 0)
(3 -4.81319e-15 0)
(3 7.05177e-16 0)
(3 4.18034e-15 0)
(3 3.32057e-15 0)
(3 4.36054e-15 0)
(3 4.61947e-15 0)
(3 9.677e-15 0)
(3 7.07225e-15 0)
(3 -2.00386e-15 0)
(3 -2.19563e-15 0)
(3 -4.86999e-15 0)
(3 1.32563e-16 0)
(3 -6.43644e-16 0)
(3 2.04095e-15 0)
(3 3.20312e-15 0)
(3 2.92154e-15 0)
(3 3.79702e-15 0)
(3 7.60712e-15 0)
(3 3.10166e-15 0)
(3 5.68293e-15 0)
(3 1.37095e-14 0)
(3 1.88559e-14 0)
(3 1.95295e-14 0)
(3 1.25934e-14 0)
(3 8.64524e-15 0)
(3 7.2625e-15 0)
(3 4.4786e-15 0)
(3 3.67718e-15 0)
(3 1.43395e-15 0)
(3 4.46361e-15 0)
(3 6.64877e-15 0)
(3 7.05118e-15 0)
(3 1.02605e-14 0)
(3 1.00162e-14 0)
(3 1.1132e-14 0)
(3 5.38751e-15 0)
(3 2.21131e-15 0)
(3 3.23788e-15 0)
(3 5.04774e-15 0)
(3 2.08457e-15 0)
(3 2.99313e-16 0)
(3 1.24963e-16 0)
(3 5.30265e-15 0)
(3 1.6726e-14 0)
(3 2.5007e-14 0)
(3 2.6082e-14 0)
(3 1.54044e-14 0)
(3 5.50372e-15 0)
(3 1.63817e-15 0)
(3 -8.3556e-16 0)
(3 2.03318e-15 0)
(3 1.97e-15 0)
(3 1.76804e-15 0)
(3 1.90589e-15 0)
(3 -1.31105e-15 0)
(3 -1.01547e-15 0)
(3 -6.66105e-16 0)
(3 -2.86811e-15 0)
(3 -6.98714e-15 0)
(3 -6.34415e-16 0)
(3 -7.54801e-16 0)
(3 -1.42542e-15 0)
(3 -2.1478e-16 0)
(3 4.10548e-16 0)
(3 -1.16433e-15 0)
(3 -6.21621e-16 0)
(3 2.88347e-15 0)
(3 8.0164e-15 0)
(3 4.67875e-15 0)
(3 5.13522e-15 0)
(3 1.17318e-14 0)
(3 1.57825e-14 0)
(3 1.42071e-14 0)
(3 1.11703e-14 0)
(3 6.8294e-15 0)
(3 7.63002e-15 0)
(3 5.48987e-15 0)
(3 6.22527e-15 0)
(3 7.38806e-15 0)
(3 7.1673e-15 0)
(3 6.12382e-15 0)
(3 8.26515e-15 0)
(3 1.07774e-14 0)
(3 1.50733e-14 0)
(3 2.26592e-14 0)
(3 2.08957e-14 0)
(3 2.11797e-14 0)
(3 2.21997e-14 0)
(3 1.86603e-14 0)
(3 1.86925e-14 0)
(3 1.47941e-14 0)
(3 7.35865e-15 0)
(3 3.15779e-15 0)
(3 4.88223e-15 0)
(3 6.82779e-15 0)
(3 7.84532e-15 0)
(3 5.39611e-15 0)
(3 3.58963e-15 0)
(3 5.78827e-16 0)
(3 3.07292e-15 0)
(3 4.60335e-15 0)
(3 3.57358e-15 0)
(3 2.48596e-15 0)
(3 2.99038e-15 0)
(3 4.51928e-15 0)
(3 3.20714e-15 0)
(3 5.28781e-15 0)
(3 1.31794e-17 0)
(3 -1.69514e-15 0)
(3 -2.24036e-15 0)
(3 -3.21926e-15 0)
(3 -2.39161e-15 0)
(3 -2.91852e-15 0)
(3 -1.85973e-15 0)
(3 -1.84256e-15 0)
(3 -1.83467e-15 0)
(3 -4.34334e-15 0)
(3 -4.97346e-16 0)
(3 1.19723e-15 0)
(3 2.53351e-15 0)
(3 9.15921e-16 0)
(3 -1.86731e-15 0)
(3 -2.21115e-15 0)
(3 -3.22997e-15 0)
(3 -6.56067e-15 0)
(3 -3.67697e-15 0)
(3 -1.43741e-15 0)
(3 3.4711e-15 0)
(3 7.89268e-15 0)
(3 1.53671e-14 0)
(3 1.69617e-14 0)
(3 1.61434e-14 0)
(3 2.05104e-14 0)
(3 2.47612e-14 0)
(3 1.57106e-14 0)