/*--------------------------------*- C++ -*----------------------------------*\
| =========                 |                                                 |
| \\      /  F ield         | OpenFOAM: The Open Source CFD Toolbox           |
|  \\    /   O peration     | Version:  v1912                                 |
|   \\  /    A nd           | Website:  www.openfoam.com                      |
|    \\/     M anipulation  |                                                 |
\*---------------------------------------------------------------------------*/
FoamFile
{
    version     2.0;
    format      ascii;
    class       volScalarField;
    location    "2000";
    object      alphat;
}
// * * * * * * * * * * * * * * * * * * * * * * * * * * * * * * * * * * * * * //

dimensions      [1 -1 -1 0 0 0 0];


internalField   nonuniform List<scalar> 
18230
(
5.328443584521176e-08
7.309623398236428e-08
3.176738403164755e-07
2.010169360361564e-06
1.097610357793922e-09
1.533583141082811e-06
3.9360462561385e-08
3.489542480993003e-06
6.340161105640539e-06
1.818759075257841e-09
6.348991863387e-08
2.089081846185347e-06
1.0074387674163e-07
1.639973904325558e-06
8.530096098732146e-06
1.001228860501884e-05
2.768282713685384e-09
5.924728008214423e-07
1.544027399528616e-07
2.147568246590219e-06
1.221536566305297e-09
8.938027461980411e-07
4.108369802064725e-06
1.444646272285927e-05
1.462038214627972e-05
2.355317394893112e-09
6.270443049248438e-07
1.437975615763113e-06
2.063775621041412e-07
2.194136754329622e-06
7.672427044724515e-09
9.015952613008076e-08
1.154671503672793e-06
6.646844304058909e-06
1.880807297839367e-05
1.985954532114651e-05
3.118561839914611e-09
7.015891649456204e-07
1.569328253349007e-06
2.143130234772952e-06
2.975306673309164e-07
2.264375018521584e-06
1.713052308288186e-08
2.64236918797751e-06
3.48313741119583e-07
1.238231117355185e-06
9.429998086390346e-06
1.971662482135663e-05
2.545748188245707e-05
3.21115415967127e-09
8.465051375374487e-07
1.667964173450332e-06
1.46838704334199e-06
3.044419034628666e-06
3.563322690515979e-07
2.376397933939799e-06
1.666423176770147e-08
3.283368577378313e-06
6.792051789784613e-06
6.000392659572889e-07
1.335735222389682e-06
1.281616317956063e-05
2.063472351494458e-05
3.051984923727565e-05
2.913469996842134e-09
8.884407618414225e-07
1.774552617043178e-06
1.475648818396576e-06
3.386818369511331e-06
4.263752757522154e-06
4.156891750766974e-07
2.554028033037755e-06
2.028584563688227e-08
3.391135513890712e-06
7.867609018343183e-06
1.149045864714742e-05
7.993863232025048e-07
1.669221911488979e-06
1.629401627192069e-05
2.130999877223174e-05
3.499476160908113e-05
3.083715598531168e-09
9.113170511852845e-07
1.818206264466168e-06
1.632268599664894e-06
3.61698231447749e-06
4.295930774689388e-06
4.918709791288797e-06
5.006904828582108e-07
2.788809361302382e-06
1.925485758125992e-08
3.717725727549117e-06
8.313406964350799e-06
1.386012714981594e-05
1.348204349673219e-05
1.061319392430993e-06
2.124868319407257e-06
1.952424126335883e-05
2.18262271853185e-05
3.799765718950787e-05
3.246113983254298e-09
9.164032198893026e-07
1.883467786747054e-06
1.738302252597298e-06
3.914710523985807e-06
3.95232425047393e-06
7.350974429639791e-06
5.900630668610583e-06
6.018495214322882e-07
3.072122409558778e-06
1.982427031623734e-08
3.724185048152677e-06
8.775795069443903e-06
1.468603930014215e-05
2.170824759998927e-05
1.364517773894593e-05
1.453602572943642e-06
2.469380157888601e-06
2.162060359704205e-05
2.214702774325299e-05
3.914535467786246e-05
3.343231636429481e-09
9.667596732946196e-07
1.988600414272653e-06
1.715606618423511e-06
4.132249795511514e-06
3.766755862102991e-06
7.816658403293228e-06
1.027782815668375e-05
6.350333683604587e-06
7.273257390952676e-07
3.485216125172947e-06
2.255027808237771e-08
3.686559134112897e-06
8.857641024201027e-06
1.524124667212743e-05
2.266021731958572e-05
3.184135220355157e-05
1.142626094161974e-05
2.35952709512163e-06
2.978996357060375e-06
1.961700792221836e-05
2.296980564722587e-05
3.158800026839334e-05
3.488347681739585e-09
1.004928044074172e-06
2.129643187720473e-06
2.037351019294507e-06
4.34724576417062e-06
4.005077719549805e-06
8.27569289393933e-06
8.622733743017938e-06
1.409130285075405e-05
7.605913450035209e-06
9.223851152315766e-07
4.012858365840097e-06
2.310028017342902e-08
3.770448358740669e-06
8.808800772684271e-06
1.533740010889548e-05
2.334723279586815e-05
3.257293836254157e-05
4.456066510747218e-05
1.046563111799896e-05
3.81268769140348e-06
3.855155672220442e-06
1.495773204284835e-05
3.262086224656477e-05
3.162534099797487e-05
4.145097850518616e-09
1.109730358169852e-06
2.31493443530422e-06
2.208610730934436e-06
4.674741933546787e-06
4.17844803819995e-06
8.693377791469017e-06
8.54709415550067e-06
1.488031254094212e-05
1.8532162838327e-05
7.851999780359532e-06
1.221737884355491e-06
4.657657820538655e-06
2.32400425594521e-08
3.794275387740278e-06
9.028674329616896e-06
1.53034319406948e-05
2.3568752810624e-05
3.360460206037226e-05
4.489092077948522e-05
5.986496454358116e-05
1.404745496015086e-05
6.444256291073453e-06
4.991476459035467e-06
1.575993308117221e-05
4.030870803560537e-05
3.045457902433176e-05
5.513527797126623e-09
1.423375703425109e-06
2.659212134148879e-06
2.504733610476984e-06
5.057802225999969e-06
4.653892497894442e-06
9.171734629129405e-06
8.645278403206214e-06
1.553115090346425e-05
1.921579272100943e-05
2.374815770829507e-05
8.891961558206204e-06
1.611462802990531e-06
5.420760253491204e-06
2.608558021366055e-08
3.792430916510464e-06
9.024491482978719e-06
1.561501429316458e-05
2.364328010382104e-05
3.392504428555056e-05
4.631884214192392e-05
6.014503422700698e-05
7.699551157328795e-05
2.426746692442263e-05
1.120184619836819e-05
6.806985058401682e-06
1.882617736247022e-05
4.031965176200768e-05
2.702845535283891e-05
9.212458882383573e-09
1.762965327726216e-06
3.42363414395447e-06
2.709704873642639e-06
5.558597319341882e-06
4.792526423594498e-06
9.775139303641936e-06
9.457356936034029e-06
1.624174084443273e-05
1.950582237969381e-05
2.469069202073571e-05
2.984609302534355e-05
8.722493553022137e-06
2.186479811191876e-06
6.456497539306972e-06
2.595674813536578e-08
4.005852218221218e-06
8.89828984730451e-06
1.554372894697447e-05
2.398932612103715e-05
3.406899254370021e-05
4.670790319663085e-05
6.184674581920658e-05
7.847860349660091e-05
9.217706930249294e-05
3.153309343493813e-05
1.716223660784308e-05
9.051881029516401e-06
1.808575065131752e-05
4.099786414082434e-05
2.086109770521523e-05
1.299334886101015e-08
2.773825582929445e-06
4.473462104421916e-06
4.791530674518692e-06
6.432755619715205e-06
5.310319353418576e-06
1.054638294009747e-05
9.368045788570234e-06
1.711506206293212e-05
2.035909209541046e-05
2.565131986221606e-05
3.08870942654987e-05
3.686647165177904e-05
9.976381417987217e-06
2.981100935021937e-06
8.070854306870423e-06
2.662406307384686e-08
4.010713721028458e-06
9.12963929611212e-06
1.538266010064706e-05
2.398086330114372e-05
3.441868366689086e-05
4.68791463360038e-05
6.222578310369091e-05
8.057320143034333e-05
0.0001006401636508191
0.0001092883249548762
3.905131732491354e-05
2.399003376025871e-05
1.193190526405998e-05
1.882650009824296e-05
4.265627261091441e-05
1.896018946237331e-05
1.336282218927626e-08
3.360338054636185e-06
5.977762640735967e-06
7.241824868131962e-06
8.391466470630162e-06
6.635678233782907e-06
1.143359022814907e-05
1.066036410894969e-05
1.807954467637807e-05
2.103547770454295e-05
2.672119484201542e-05
3.206911654399153e-05
3.793313964761855e-05
4.493046547717859e-05
1.218088719517155e-05
3.940921248734327e-06
1.012708793669339e-05
2.816221582199852e-08
3.848822263562671e-06
9.193654479848987e-06
1.566245015307209e-05
2.371321084075357e-05
3.448880703049444e-05
4.722746600256183e-05
6.244885173918756e-05
8.099002356562751e-05
0.0001031237488501885
0.0001271656816584951
0.0001263453246424201
4.572449635075045e-05
3.160147777809011e-05
1.535417434097061e-05
2.145933652752693e-05
4.521784839682701e-05
1.932096045357835e-05
1.476032441621867e-08
3.272132915601231e-06
6.848819082340929e-06
9.964173046884307e-06
1.110219537215789e-05
8.087682814970622e-06
1.300005542055806e-05
1.173009077691587e-05
1.926572914644934e-05
2.162876227768766e-05
2.807754910535023e-05
3.336659342516185e-05
3.932986913384963e-05
4.619622315019501e-05
5.40720569094528e-05
1.543214750706444e-05
5.120295055445548e-06
1.27876672668396e-05
2.684813001364418e-08
4.005429563970648e-06
8.966842182937092e-06
1.557561710586609e-05
2.398409252762511e-05
3.404552612389863e-05
4.730674108662694e-05
6.283622865341117e-05
8.137432457573105e-05
0.0001037637848543686
0.0001299241263756901
0.0001584316386806427
0.0001460463288432697
5.418374778564679e-05
4.199017404932673e-05
1.968153538449325e-05
2.588204518801336e-05
4.901792547839769e-05
2.104025114390833e-05
1.661798987712401e-08
3.39530376078306e-06
6.73756226785996e-06
1.116932197810856e-05
1.479183939277208e-05
1.395551990888056e-05
1.653560929806231e-05
1.292973943237986e-05
2.061767195591204e-05
2.244498332919116e-05
2.959285108930408e-05
3.496883983405194e-05
4.089181750248965e-05
4.784961845845978e-05
5.569678528193767e-05
6.462720597585165e-05
1.793830120264615e-05
6.62705311861247e-06
1.623001060862971e-05
2.876950795347779e-08
3.948383274280563e-06
9.096348971285848e-06
1.535799764100253e-05
2.391659455787218e-05
3.431092632083843e-05
4.693554720949083e-05
6.288484099079812e-05
8.182238909163526e-05
0.0001040519354455249
0.0001309460841354034
0.0001615265171018157
0.0001948519557036715
0.0001679430184189365
6.275078374157951e-05
5.688570093279556e-05
2.536815987396906e-05
3.199892103837353e-05
5.482792098768941e-05
2.408135200627464e-05
1.944625594685474e-08
3.52299058910269e-06
6.966455094193707e-06
1.107954422029377e-05
1.632196094840885e-05
2.054134455253841e-05
2.146677375534687e-05
1.726267474642673e-05
2.303449658515908e-05
2.406652169493392e-05
3.134318924742544e-05
3.673796938957637e-05
4.274256791080158e-05
4.970314318361784e-05
5.752759023149137e-05
6.681456286827921e-05
7.682864937588407e-05
2.170079516429874e-05
8.603775319002341e-06
2.094169129749836e-05
3.397765771466683e-08
4.071620781823453e-06
9.036259861168387e-06
1.555144176505469e-05
2.348664269596827e-05
3.434190144553669e-05
4.71634571364197e-05
6.250720147013841e-05
8.169221040592547e-05
0.0001046249273692404
0.0001312899639205106
0.0001628396166978068
0.0001984486465628009
0.0002370254267771567
0.0001920810415231674
7.349735603176209e-05
7.82205450595028e-05
3.273704004174381e-05
4.118916065921042e-05
6.358875068765004e-05
2.763554994695066e-05
2.438703640747018e-08
3.742606835900442e-06
7.298083435610373e-06
1.151409247172804e-05
1.624554682021254e-05
2.251814032809335e-05
2.741811247028292e-05
2.425685283553287e-05
2.848226405245388e-05
2.578787535768152e-05
3.339515091578485e-05
3.880049009610374e-05
4.485983341249936e-05
5.189887376404009e-05
5.979352251874214e-05
6.890663786175293e-05
7.958176809689863e-05
9.110813122002705e-05
2.666318040959888e-05
1.117270383096112e-05
2.697358548358629e-05
3.758220971200148e-08
4.298224081485445e-06
9.469382931156074e-06
1.560796729365079e-05
2.364836092215333e-05
3.359780792271038e-05
4.694184316886771e-05
6.270767699826074e-05
8.130312732222038e-05
0.0001044078535643157
0.0001319042144171497
0.0001635365770057164
0.0002002240103008542
0.0002414149544315747
0.0002850287010715739
0.0002224527354278592
8.53732211456225e-05
0.0001082118864307921
4.238991031064512e-05
5.45639682020463e-05
7.419099089341908e-05
3.18646427564376e-05
1.952226380654116e-08
5.250962611279708e-06
7.87194169288947e-06
1.211028265028107e-05
1.691120356253385e-05
2.123605730998915e-05
2.99023116805283e-05
3.527675060374038e-05
3.621220547982325e-05
3.118802747860255e-05
3.703683433260911e-05
4.129544033915334e-05
4.728136006274227e-05
5.440773567540904e-05
6.234098545204731e-05
7.161657696537902e-05
8.201357773551576e-05
9.456764908237816e-05
0.0001075992846136981
3.327952995880641e-05
1.44810781110686e-05
3.491834588096007e-05
3.97562066917432e-08
4.340128575618819e-06
1.019602191601389e-05
1.638611188543563e-05
2.395029049482462e-05
3.363918285402886e-05
4.609301537932559e-05
6.245125322235341e-05
8.149650851914364e-05
0.0001040328592603405
0.0001317352503118386
0.0001642384024757758
0.0002012451337534278
0.0002437488859532864
0.000290678575409302
0.0003389849878023946
0.0002552242428087444
0.0001013499110187675
0.0001516493766657582
5.508356159541055e-05
7.337412382557203e-05
8.732871695448511e-05
3.708218434780749e-05
2.569556377633835e-08
3.967905741820039e-06
9.391494257690218e-06
1.298854378956746e-05
1.781230256427003e-05
2.242085901483985e-05
3.02158272759305e-05
3.719103383772947e-05
4.477339781007982e-05
4.268557838670445e-05
4.501045625216479e-05
4.560481213551129e-05
5.019482882942382e-05
5.729176999845508e-05
6.528935033654174e-05
7.463123776574988e-05
8.523555094104057e-05
9.741328937420218e-05
0.0001119525953336527
0.0001268820821308578
3.997024085308783e-05
1.867652271496468e-05
4.621724135485617e-05
3.973548371975773e-08
4.385833196940191e-06
1.01610638423254e-05
1.761626340870738e-05
2.52331570450799e-05
3.448262539225513e-05
4.611141804139906e-05
6.148653409863637e-05
8.120458774398517e-05
0.0001041784802280894
0.0001313996889114881
0.0001639596839238439
0.000202092170731722
0.00024512873134737
0.0002937762258653788
0.0003462307042609427
0.0003985741343198002
0.0002967223017883489
0.0001196271254580805
0.0002115278806809239
7.186346125986173e-05
9.973039863352647e-05
0.0001038131619647499
4.388937875921221e-05
2.11855041241283e-08
5.48000100402189e-06
8.145445473114833e-06
1.446671930979506e-05
1.909837293229209e-05
2.426240208107649e-05
3.131054861523961e-05
3.429024362279094e-05
4.88247502668467e-05
5.178993480176669e-05
5.609681802218031e-05
5.509519571084536e-05
5.521033981469516e-05
6.072476914244876e-05
6.873183218415896e-05
7.809630701768933e-05
8.878134965570095e-05
0.0001012328938226879
0.0001153123398610819
0.0001323204044809056
0.0001495583694624545
4.809590944114724e-05
2.381265087379586e-05
5.327727485038235e-05
4.540040737604788e-08
4.415003952134799e-06
1.012574379299138e-05
1.75415624242001e-05
2.712480513327646e-05
3.645580164992884e-05
4.75630244516185e-05
6.139611970134102e-05
8.008899479995527e-05
0.0001038835699855555
0.0001314302756835822
0.0001637024527073075
0.0002017619483724032
0.0002461574459963574
0.000295492574346194
0.0003503082500725786
0.0004077112611377704
0.0004630879851215274
0.000344405382982371
0.0001436193505206858
0.0002879178395159022
9.318705120321069e-05
0.0001362712298000934
0.0001230649334741408
5.244836293937352e-05
2.190752884828715e-08
3.733213907302542e-06
9.651136092144591e-06
1.325878927669592e-05
2.058437055552633e-05
2.647216270702315e-05
3.306831115883523e-05
3.484851851858869e-05
5.027516497265838e-05
5.373723351737592e-05
6.928587145185591e-05
6.854136281141258e-05
6.668688457687872e-05
6.673631236459578e-05
7.271709896702712e-05
8.216640689363597e-05
9.284837457366206e-05
0.0001054163320503894
0.0001197706579462235
0.0001363075881100138
0.0001558432993843696
0.0001760169964418952
5.687579649003491e-05
2.920963930817872e-05
5.622538079915992e-05
6.230129483530117e-08
4.785564903969327e-06
1.022596550211633e-05
1.743289297075158e-05
2.70084482508438e-05
3.898848446344471e-05
5.040317330412484e-05
6.367877557194447e-05
7.996904503180429e-05
0.0001025220207240895
0.000130984170241833
0.0001637803704656332
0.000201522924374696
0.0002460206404515754
0.0002967654584291663
0.000352581874768739
0.0004127435251065358
0.0004742164251346894
0.0005304647831858254
0.00040335814468301
0.0001729967857794458
0.0003997739928088082
0.0001194825908052376
0.0001860549485565204
0.0001472297005720541
6.261189578656479e-05
2.356393526443663e-08
3.815081350885012e-06
7.793400241413124e-06
1.477326790802607e-05
1.951857566894256e-05
2.792834343843089e-05
3.511612096891395e-05
3.839013598819494e-05
5.242080360394609e-05
5.304481239922022e-05
7.574816177021195e-05
7.826815395939698e-05
8.29837032027392e-05
8.032869963193939e-05
7.976603036275584e-05
8.695502664595256e-05
9.753595084509352e-05
0.0001101925291629565
0.0001246594784536122
0.0001415402838367387
0.0001607361659574348
0.0001832690370862179
0.0002064062434960846
6.707340665522098e-05
3.459439157183485e-05
5.829131015266745e-05
1.234328463529336e-07
5.270014279699514e-06
1.130265168643869e-05
1.765247975207608e-05
2.673816049170433e-05
3.877788869017049e-05
5.354667503175241e-05
6.741670503901474e-05
8.311212907434138e-05
0.0001023978908664913
0.0001294133100289513
0.0001632027905968878
0.0002017274371641668
0.0002459961490592798
0.0002968330180585929
0.0003540887941579687
0.0004158189957013953
0.0004803545573953778
0.0005437421733138228
0.0005978805577124241
0.0004702039752204152
0.0002112151992436394
0.0004493715114653463
0.0001506160668785219
0.0002397150670683179
0.0001766176044937433
7.450129935568782e-05
2.536771538181994e-08
3.887688656676895e-06
7.877424297180438e-06
1.286361634376752e-05
2.094821966990343e-05
2.698566220530265e-05
3.645232629750008e-05
4.438732953299103e-05
5.488882490390466e-05
5.588200436318462e-05
7.836528643244512e-05
8.168302263553662e-05
0.0001028713500275944
9.992868365336876e-05
9.615766363363656e-05
9.535797134685198e-05
0.0001032593074709114
0.0001156331823097298
0.0001301878883966948
0.0001471931343376836
0.0001667581628030312
0.0001893267334833762
0.0001935357630441074
0.0002125816406968705
7.702158632369715e-05
3.919543553261404e-05
5.951855653276088e-05
2.917933008394895e-07
5.729247014718202e-06
1.274876970080511e-05
1.953569141465926e-05
2.700144304453827e-05
3.847426455708122e-05
5.318064840975495e-05
7.122719473062555e-05
8.792870990051855e-05
0.0001068135140605077
0.0001294120246980664
0.0001614094336941539
0.0002013262488371552
0.0002460882748647238
0.0002970805515723868
0.0003544602994079217
0.0004177588122069461
0.000484466330883687
0.0005512253391585374
0.0006134412383613146
0.0006614552878563831
0.0005482963402278161
0.0002563663829101152
0.0004927509924440898
0.0001854171450131772
0.0003063399319111189
0.0002103779733672297
8.746081503845112e-05
2.619025494758337e-08
3.991694336656246e-06
8.020863027927578e-06
1.305296926559844e-05
1.903782036310683e-05
2.828213262392467e-05
3.568453943383504e-05
4.504691528198464e-05
5.695950649026421e-05
6.068344686180043e-05
8.155828626303557e-05
8.132463707245541e-05
0.0001127189540620658
0.0001175980857763134
0.0001195821329161796
0.0001146463476573936
0.0001131018928945284
0.0001223929397751189
0.0001364912196123048
0.0001535748118646458
0.0001732588043694347
0.00019626454930386
0.0001971432853061717
0.0001847938890775407
0.000205079767821642
8.58864151436965e-05
4.298631875616563e-05
6.105537760356824e-05
1.549721264880501e-07
4.746817352913126e-06
1.384698371722814e-05
2.199558685792801e-05
3.033511083973892e-05
3.901558326183487e-05
5.271979300049128e-05
7.072770438085967e-05
9.270981755660149e-05
0.0001128817138746244
0.0001353791222021104
0.0001617537275066338
0.0001993874937062137
0.0002457241461488019
0.0002972051956635049
0.0003549949346762787
0.0004185601335220914
0.0004870290790676664
0.0005563799814926363
0.0006224788468770476
0.0006791463874019965
0.0007162999372519171
0.0006295087032548596
0.0003110212201803563
0.0005266307154722851
0.0002234123378738771
0.0003879265444971135
0.000253621653030601
0.0001036913050210243
2.707098147254428e-08
4.017859970942224e-06
8.170387468937711e-06
1.326753516373575e-05
1.931642575752338e-05
2.660918594862033e-05
3.690097288184589e-05
4.261702779219535e-05
5.847284823117495e-05
6.433942698408597e-05
8.47490162908448e-05
8.587257766151848e-05
0.0001170684576019165
0.000121409318126744
0.0001483947220152752
0.0001424619862212719
0.0001359463938278384
0.0001340424393443568
0.0001444111921877099
0.0001608616544587162
0.0001805535123718052
0.0002037056906437656
0.0002244225071773128
0.0001971083243505166
0.0001761127759703636
0.0001896052761233554
9.1957428324325e-05
4.483302792948765e-05
6.155101706192638e-05
2.805964084392833e-08
4.228482271178188e-06
1.140084600514429e-05
2.383228324609903e-05
3.422308286630908e-05
4.411638341545791e-05
5.358510316520343e-05
7.016765226666659e-05
9.19605581193979e-05
0.0001183786768672867
0.0001429421598580337
0.0001694368007453661
0.0001998855542108293
0.0002436520150681627
0.0002969140393327811
0.0003553226345139809
0.000419459082364307
0.0004883411034096189
0.0005597375567463421
0.0006287783287584703
0.0006898073387370921
0.0007358405107004587
0.0007566201567279712
0.000709881076568147
0.0003667450731722978
0.0005478267610995952
0.0002573379180745841
0.0004958563127297821
0.0003111374559560862
0.0001020393650188884
2.787661283814249e-08
4.044848510669852e-06
8.148300784744101e-06
1.344324605695315e-05
1.969410039368678e-05
2.656140782538848e-05
3.53755556085606e-05
4.461565753611383e-05
5.864717534968849e-05
6.567258273688478e-05
8.740529395425863e-05
8.986894989567752e-05
0.0001214083331782735
0.0001227384426190607
0.0001626492454352781
0.0001731533811925422
0.0001687384218784029
0.0001607468491284223
0.0001581039693702632
0.0001700623070753998
0.0001889382717338169
0.0002119881730463431
0.0002389485910089401
0.000226617810305172
0.0001972921242489369
0.0001703665353621321
0.0001731879214682232
9.573315820748689e-05
4.849830023802575e-05
6.924544310645288e-05
1.204652366960709e-08
2.41979518868874e-06
8.958913426814632e-06
1.924029130622033e-05
3.696364775530858e-05
4.978163446463808e-05
6.085871623241547e-05
7.121168320583845e-05
9.127861204653451e-05
0.0001172097447890057
0.000148925535811652
0.0001781954441476852
0.0002091757452318929
0.0002444026220975576
0.0002945831399117993
0.0003552300958267516
0.0004199814946427195
0.0004895026658823487
0.0005616103597453982
0.0006329203481412621
0.0006972898454874841
0.0007479337466777769
0.0007774685148768377
0.0007785080091786479
0.0007521861058385988
0.000409705564853476
0.0005445622436132049
0.00028354731044819
0.0006113358194767507
0.0002963576153307093
0.000143801533279939
0.0001995261480307023
2.861957613148926e-08
4.061573547487593e-06
8.267948267798789e-06
1.344897843867027e-05
1.99521427488187e-05
2.720015144817251e-05
3.578522055385931e-05
4.26496781928899e-05
5.957059495744398e-05
6.535178709262642e-05
8.900999839007534e-05
9.442557499006692e-05
0.0001254039512750611
0.0001265931723925336
0.0001691111506208614
0.0001742145057430132
0.0002088637978176564
0.0001991091155329498
0.0001891052386127722
0.0001860847320413735
0.0001995712420667777
0.0002215932344959254
0.0002483285569246356
0.0002544864820786091
0.000227480713170849
0.000197209146378978
0.0001653050037067873
0.0001627924290875384
9.527565301174773e-05
3.183405760324452e-05
2.498655835776305e-05
9.394175506711748e-09
1.827026441561604e-06
5.150068932843348e-06
1.412789861195425e-05
2.928674305785575e-05
5.326048812928751e-05
6.868387927355963e-05
8.100082309248256e-05
9.283804894421013e-05
0.0001163215966124706
0.000147093418855201
0.0001846610575251187
0.0002192144976104839
0.0002552102335702975
0.0002953936412640073
0.0003525279153769523
0.0004200106986692947
0.0004902941563736194
0.0005631001538921701
0.0006354557798725028
0.0007022980701615621
0.0007564438732100909
0.0007905257295696889
0.0007995097873763438
0.0007805681621656413
0.000733146816078025
0.000412453454582234
0.0005032268492383115
0.0002968355256299224
0.0006367492727745509
0.0005773161303184778
0.0001238172314668084
0.0002393079131032152
2.815624991936867e-08
4.077125632417392e-06
8.367302841361683e-06
1.365849850305773e-05
2.000572138979026e-05
2.771773390816778e-05
3.624063211405116e-05
4.216805802343885e-05
5.861573267130054e-05
6.741029833503196e-05
8.990545635055556e-05
9.562899751370898e-05
0.0001284361245633862
0.000132208878315329
0.0001747764980222945
0.0001762973955481338
0.0002294367894229768
0.000245766132311279
0.0002337139377083982
0.000221905248940903
0.0002182263261764003
0.00023390817084577
0.0002592504104219862
0.0002865052146229055
0.0002560575913006709
0.0002232347999674418
0.0001915665197730264
0.0001602624443726038
0.0001473001221576807
8.048523436313545e-05
4.869422713677532e-05
2.936256431622529e-05
1.075363733712357e-08
2.001299117244269e-06
4.31118112534113e-06
7.616602670507706e-06
2.009444891891882e-05
4.104846937527028e-05
7.277182102431091e-05
9.117165519852422e-05
0.0001053167199233129
0.000118530361782972
0.0001458976615979766
0.0001822283292036716
0.0002259697418868785
0.0002663227343742765
0.0003076340303906257
0.0003528286280062171
0.0004167013064985332
0.000490204770321962
0.0005641938729758016
0.0006373177787305732
0.0007054161822183531
0.0007622023466840148
0.0007996977896772433
0.000812673852777081
0.0008005878377179722
0.0007574083325876186
0.0006760779304453715
0.0003648526162546757
0.000423582359875356
0.0002001826139872439
0.0006966072973308761
0.0006859892089312935
0.0005426399195537177
0.0002364806404286469
0.0001557281431700207
5.419563532897044e-05
0.0002434305311638002
2.835094851331321e-08
4.095166845698181e-06
8.408017895986704e-06
1.383806912314536e-05
2.026670152054299e-05
2.781340120272414e-05
3.681441905422338e-05
4.356702692852498e-05
5.948369595110488e-05
6.549958895285813e-05
9.075367392404002e-05
9.663307873228921e-05
0.0001305508474588647
0.0001365430707233873
0.0001796147758947556
0.0001825571658081679
0.0002383775128552313
0.0002507204390111342
0.0002877167209298332
0.0002732656156629342
0.0002593386197890315
0.0002555575052963931
0.0002735558938496744
0.0003028993471473927
0.0002828653288393916
0.000247597717090203
0.0002132445334348245
0.0001857216328818816
0.0001517937340080659
0.0001316535834398064
0.0001540941271821926
6.62928140165912e-05
3.843498088112472e-05
1.099220751073495e-08
2.531459544755473e-06
4.642739856744829e-06
5.563750289633074e-06
1.025717121837068e-05
2.645302421272414e-05
5.440550599208592e-05
9.553820701001119e-05
0.0001178675000909615
0.0001343159444782932
0.0001485543272894474
0.0001806393192164239
0.00022266041218261
0.0002729415857929744
0.0003192514218319306
0.0003653837376718675
0.0004158609473357208
0.0004858174669899421
0.0005639529257628942
0.0006385023592542305
0.0007075510211168658
0.0007657595334147335
0.0008057958937452567
0.0008195480973172216
0.0008091934210362109
0.0007753686117673329
0.000691478031574894
0.0005639933428215549
0.0002919611607704767
0.0002873730704079466
0.0003193163123110021
8.329058451620746e-05
0.0007433138541967489
0.0006589461991288611
0.0007845503944340872
0.0001824260396290582
0.0001685676739201521
7.74405578875876e-05
0.0003376970588643586
3.232877556169661e-08
4.084845512475732e-06
8.413111533182787e-06
1.38266338433641e-05
2.041327666427068e-05
2.817705903689554e-05
3.692430002558173e-05
4.49326099354431e-05
6.01105098923202e-05
6.648578175951622e-05
9.068219211197451e-05
9.871700312046229e-05
0.0001321960238094432
0.0001390275082523279
0.0001833243789260359
0.0001895394535853031
0.0002454635609350462
0.0002550806070170333
0.0003158020447766783
0.000335123479869626
0.0003181067997527626
0.0003025356014443504
0.0002986107331304074
0.0003095280044731388
0.0002983064186372258
0.0002650985262621934
0.0002340532917943797
0.0002022130920168204
0.0001708192729120703
0.0001453372478665188
0.0001534393664631196
0.0001126068393893091
6.962878348303009e-05
0.0001005076339731603
1.821773044227466e-05
1.105833169822892e-08
2.607382076181719e-06
5.122756837990577e-06
6.815151246594475e-06
9.940957131139807e-06
1.116435107264628e-05
3.334805296570943e-05
6.938827893395507e-05
0.0001219069020019963
0.000148832951039733
0.0001677626261890097
0.0001833743442798408
0.0002204661021567499
0.0002681653748136843
0.0003254093745375376
0.0003774206684903582
0.000428301744497181
0.0004830049627662405
0.0005576963840213476
0.0006377409692394035
0.0007086115557336854
0.0007680079482132367
0.0008095379853573011
0.000809106148443809
0.0007942787491656803
0.0007593830589837826
0.0007010672632080072
0.0005680855609307552
0.0004372029511173939
0.0003399470572820842
6.779714611876192e-05
8.767009674080264e-05
0.0002428794158913489
0.0008392541934429041
0.0007341945933651242
0.0002688405190255107
0.000720630960493732
0.0001772183950043772
0.0003274083047002596
0.0002637398015763879
1.790810918949144e-05
0.0004183106555645215
3.926728153408517e-08
4.268824072128104e-06
8.504501645187707e-06
1.373824412729061e-05
2.047679694317717e-05
2.837331910986075e-05
3.735041561413795e-05
4.466571528608539e-05
6.079372894521806e-05
6.816748718304312e-05
9.195839064374287e-05
9.866697994124349e-05
0.0001334039898081647
0.0001414219144958183
0.0001864642191234618
0.0001941846048739632
0.0002513202654041103
0.0002645245173333657
0.000327368447185674
0.0003531129077719894
0.0003885764366574316
0.0003694776752505006
0.0003522116831571542
0.0003104519356481043
0.0002892998604276824
0.0002719177817100816
0.0002487125672489389
0.0002100320074459592
0.0001697548110265538
0.000126661019854608
0.0001379053723211916
0.0001077646162250304
0.0001333549074837221
0.0001464666918570103
6.882072830454031e-05
0.0001308972050111537
1.157588272749137e-08
2.662605075806567e-06
5.259518297857924e-06
8.195706186020841e-06
1.096083219094241e-05
1.013772551383857e-05
1.442212289079437e-05
4.042958550995795e-05
8.570014101617874e-05
0.00015094276783366
0.0001835627148573978
0.0002055425716599666
0.0002228690778328362
0.0002649025402372461
0.0003187846379767545
0.0003827659354357993
0.0004393658322898479
0.0004935906036972641
0.0005514450409436297
0.0006287788576253147
0.0007067624785614184
0.0007687427670969994
0.0008116130920421971
0.0008010588526184169
0.0007807000478263002
0.0007423563387836996
0.0006764608817049311
0.0005635945600385788
0.0004356847757078429
0.0002756523756640517
6.613575944058766e-05
0.0001498076724478429
0.000160442945492109
5.72861961234729e-05
0.0001365635457269896
0.0008168692274317029
0.0006908424693097752
0.0002890838517637111
0.0008918425024530401
0.0001750062145221374
0.0002614894232642742
0.0003539948584781754
4.627568237753502e-05
0.0001809256562769392
3.120250511988572e-08
6.041712237127205e-06
9.000226066093756e-06
1.395619964519528e-05
2.033882945950408e-05
2.852792243577583e-05