/*--------------------------------*- C++ -*----------------------------------*\
| =========                 |                                                 |
| \\      /  F ield         | OpenFOAM: The Open Source CFD Toolbox           |
|  \\    /   O peration     | Version:  v1912                                 |
|   \\  /    A nd           | Website:  www.openfoam.com                      |
|    \\/     M anipulation  |                                                 |
\*---------------------------------------------------------------------------*/
FoamFile
{
    version     2.0;
    format      ascii;
    class       volScalarField;
    location    "2000";
    object      k;
}
// * * * * * * * * * * * * * * * * * * * * * * * * * * * * * * * * * * * * * //

dimensions      [0 2 -2 0 0 0 0];


internalField   nonuniform List<scalar> 
18230
(
31.53076146298401
74.20352712916247
38.99520578230589
119.7353124881356
6.015826237522889
544.9776938410038
19.4611942680756
106.3225937098547
121.4221393165227
6.839492540547882
44.26337403857355
327.9185609420631
24.65896893823163
78.27511513019267
132.4959872100803
124.3882840949544
8.67812486023483
44.42347854405475
34.54856161450107
206.3313327463382
6.066490316152279
181.0723780593408
81.97851140080094
149.51657717981
126.8090585787634
7.096396596626997
52.0638213344485
32.99796099210379
31.71632618992411
144.3741856554285
19.74571453185511
36.89977791412764
115.6274429896599
93.00713262897355
161.0089045014433
129.343984400969
8.606753394445805
40.98976355831883
35.17011654143699
34.72561854921505
31.79747878164235
111.1660336349927
25.54401265872615
64.78839470408316
52.45442276563816
85.12086527266224
101.2865710629418
168.6702543271423
131.2160052549251
8.879294440568591
42.41367620999067
33.71980659580205
43.02578396916837
33.17774172671696
32.6334435441221
94.08578332489601
21.8237052553501
86.2830877308443
88.861524833754
62.90050913048015
68.12080450618154
110.724978757154
171.9968548112783
132.3679564477221
8.077416434412793
41.91919803046785
34.23468553647201
43.40039354163653
39.78915663114127
35.36391409524954
33.88774769501415
85.3180087062271
24.28195717231323
69.73056984231371
106.5483596749574
105.855715841331
76.77009540973071
67.22715742709256
119.8010446091492
170.2942036010191
133.4507963975618
8.286395352520206
41.74738335330215
34.27725653865227
43.66512501535261
39.56686418843864
43.86007976694899
36.88965833719179
35.5056143657822
81.28303306003926
23.17214843405227
74.5728601179936
100.4351302938566
127.9008148416195
124.4798640385164
93.60888707403529
72.17258568384069
129.1318829021772
164.6029804234015
134.3029344204718
8.362277064933828
42.55181042883069
34.06615780470026
43.42836569969059
40.32034418345155
45.25247825193217
44.3867574352934
39.44863425345653
37.36977433677502
79.7331955773226
22.66030601316678
74.69122987597613
104.7279316480779
124.8775665422055
148.9126224519396
145.6504870822487
115.8805811869938
85.27884714653904
139.1246368543424
157.1308447080463
136.488803187809
8.237420561104516
42.63728985032175
34.50049490013647
43.33646076680438
40.72952383013062
46.20311352711777
45.10928321224603
47.53167159059424
41.42263037488012
39.48810792822414
81.8452156382728
23.75528215072211
74.46290085070147
105.3029049664938
128.9728937607561
147.5885641692732
170.0460347781993
171.675713757185
142.6996328942218
105.8548979754427
150.8553774876466
149.9000713221395
138.5443534896585
8.013764596473003
42.68412647174821
35.25679008138105
42.68866386088679
41.04829023563494
46.61861826596228
45.93443438553185
49.05607428512955
49.12521370687415
43.70495722565832
41.83182889325371
86.99271073570179
24.16373601059557
76.06256017938996
105.5820076417545
129.8273091463241
151.5518908678693
169.8194875458977
190.817465360507
202.3413760690845
170.9360183898789
130.5739070142633
168.3047092270678
144.787513053858
137.9381893655752
8.367739890900902
39.13437119630791
36.03957974285567
43.22377104535863
41.36377908767418
47.11300114141253
46.52475307044855
49.94572449870005
50.14977879167614
51.82212967178605
46.10744458490156
44.32846672228422
93.01657741944965
23.52873097023286
77.25681884355465
107.503809889735
130.5951775251675
152.8206862304677
174.0671227487987
192.3874018850824
211.6362367663631
222.3898259464759
193.910996282588
158.5488126165927
184.7335556368488
142.407331895123
133.7552136011688
9.229236008729941
35.64867158511006
35.83180474128722
43.45053764240785
42.51550770337897
47.63850524998016
47.48731686982352
50.84125163923206
51.0011605040333
53.09844374872861
53.95564543784815
48.75871950059246
46.81391211703543
99.16835832104294
24.61378872445156
77.53549024197248
108.5632450018453
132.7717931116987
154.1422315436583
175.8316946682357
196.7340099446722
215.9425241467344
233.1688213394228
233.8360980024557
212.4154085933476
185.7893387229856
183.4403355236831
145.0976110963803
121.7772854225381
10.30274285216565
39.21741615022212
36.6310037068993
44.14010363104985
43.40529114749644
48.77760372818205
48.30289495737969
51.90700254247687
52.05531010568252
54.10564212573804
54.80092843144836
56.81029791193718
51.58851310407891
49.15964342521738
104.3004322098628
24.87045649433653
79.73841242954283
108.8032319186854
133.8732371573104
156.357328105838
177.5024440644636
198.7713150365521
220.1408384789219
239.8365398323409
256.5514303251129
249.3509220961544
229.9987811949876
211.7717655416486
176.9952447085723
151.6299107953721
113.1452179737855
12.06629786828597
35.10476042668553
42.17206936691336
44.17351532039116
45.0658772119649
49.69922400023529
49.68719309010125
53.10266368728992
53.30936024283115
55.29429064161162
55.92655427900125
57.85946849622806
59.10260558449738
54.83319528378311
51.50299755526694
110.9308898393833
25.42055470497857
81.8717254915418
111.0397359315339
134.4822280072468
157.7564526924643
179.8223827347486
200.6486888380048
222.4140524928994
243.9685358255956
264.9063319013948
281.6296601073191
269.6580830066051
249.122995477365
238.0256199936718
178.1867172534748
162.3745842545107
117.3805922827567
12.0361402824207
39.55648372076397
45.35033411209486
49.84609084188137
48.02331787618227
51.35591271941714
51.16566201242313
54.38336780607583
54.65958115795092
56.76613389649756
57.19681743078612
59.07096440448406
60.01034302182153
61.8800386059029
57.71881045170664
53.95495135077648
115.5301634652839
27.68403040371685
83.58509929344727
113.5124713201812
137.0008520820788
158.622912278866
181.6680543090244
203.0702572822443
224.5390889368221
246.4913282533822
269.1911250949071
290.8476860103352
308.3044653603764
294.0978077668516
271.5281717085371
265.3215929535182
192.4782640398359
177.0391800904259
128.0523900831025
12.4423839294334
43.36409622010633
50.45306801739517
55.41316436230544
55.09221380099662
56.04550040278786
53.71006255201399
56.14746858642234
56.2645539827062
58.34157144728474
58.76981837696031
60.43189273418516
61.30387514605894
63.09759761280477
64.25458968944267
60.56093596332015
56.60626174017943
119.3259782568966
27.13186657235094
89.77521103777829
115.7360444176522
139.1548152596143
161.4014671944054
182.6785505167541
205.1235351794593
227.194691698667
248.953466864374
272.1530111629869
295.1862760023749
318.3030844052646
336.3720980530482
321.3342526891337
297.5466904478362
295.5379449851562
217.2887347447459
195.3486125658039
141.7128695535894
12.6575261057326
44.93960052472814
53.11115536156864
61.38455546920991
63.49574541279893
62.92652357844798
59.6393085443184
59.25923303911017
58.36233844626724
60.20302919899355
60.50264191709741
62.1088215159497
62.74702844845701
64.45244512794244
65.43890391298488
67.0007908004728
63.26953518081011
59.47867237899902
122.2291933077977
27.24671143346325
92.06536140153689
122.5736263412138
142.5698872578722
163.7092819012437
185.7235591638577
206.6644336792589
229.4558105763954
251.7796669110389
274.7213819465243
298.6004451846865
322.7976512674014
346.6727181410987
365.8213867973971
350.4799934948113
326.7069599734603
327.89566521682
248.6875945807952
218.2288152527948
155.3205566451001
13.18580570007492
44.92914258668572
54.59978113076163
64.51785649677664
70.05623551199069
72.2814161637635
68.5015182194731
65.8622680343836
61.89544968460467
62.56609416803245
62.51428561988337
63.99758472062013
64.46344245340534
65.98032906602282
66.7915954224884
68.33089560045474
69.23955063069033
65.88445375173973
62.49037174337177
125.628880430759
28.58837656971909
91.40045529573466
124.6724999744049
150.941600265815
167.3436989221941
188.3746137948631
209.8140358599252
231.4810342867608
254.0572039234434
277.7829185927685
301.3064208563471
326.5641927165538
351.3129523097238
376.8796274638949
396.637784554599
381.0338738637032
358.4783138282766
361.7891582090126
288.5112805663921
246.0714213327388
167.70267114011
15.98409253055191
44.09598054535049
55.40560627615019
66.24568633719576
73.0200208032764
79.58000485728112
79.75988299716015
75.97247399107323
69.56892495518555
66.6384274333013
65.05585450192912
66.20042969573635
66.40014853080774
67.79568355699317
68.37781469482154
69.63184690017788
70.43785310628787
71.51543891611003
68.15139112472821
65.49835520684428
129.0676559145426
29.69038793129375
92.65459269268618
125.4329579437055
153.2303141511869
176.4998759216008
192.3229250068441
212.3899945949326
234.7995087180439
256.341876347309
280.2648681287598
304.4940466811804
329.696656939493
355.4202670718727
381.8411949966263
408.043995559024
428.6346344372165
413.1383559187623
392.1143601728969
399.0195129301132
337.1148379629564
277.9771764953715
177.9676003887749
12.91199638980724
45.5263412836878
55.99580849202376
67.23755742150391
74.72117411273695
83.30883315474107
87.66376749367006
88.1377986294239
81.35532542843299
75.23862077737546
69.42745249476698
68.94406976275866
68.68051422608946
69.85331536255283
70.21189904734999
71.32047478450555
71.79024508580738
72.72757902529224
73.21711533353158
70.06328670443889
68.37305051586227
132.2266694380074
30.95407511434051
95.99949004075803
130.4352127874155
154.2818284733274
179.0301927273468
202.2098889013753
216.9902790226609
237.4870006558676
259.7524164132124
282.8787209883802
307.1835371960265
333.0679947197962
358.8121251891682
386.3591831506888
413.3908236483447
440.9315499535392
461.5263875334599
446.0491581323358
426.6225746054142
438.8265858441101
393.2093633394714
312.8541908940981
186.2828827609744
16.3049594656904
45.1601541359191
57.43891311007796
67.79157057197666
76.0358400071085
84.95359186800745
91.39689348233848
96.77100851301098
95.08247982261231
88.14096729490993
78.92174425748574
73.69872911171383
71.54846159966795
72.26890252484955
72.27638962581111
73.16829433147983
73.43787500086948
74.05200152143067
74.3728125098885
74.65699715638826
71.49478738293946
70.99287730436609
135.5979558332213
32.81854922163042
101.1951300693901
134.8685668189607
160.9500890059774
180.8362880653338
205.3386002653072
227.3815795911989
242.7318144142702
262.9098880748238
286.4178067992731
310.0066596759437
335.8734287126485
362.3216137829954
390.0247403402756
418.2675198556333
446.9039626263662
474.6088958222784
495.6201279419399
479.3410636729016
460.6095706411705
480.4965327848805
456.4741131923607
349.4518146329149
193.5953943831305
12.67971385655193
46.86537734459327
56.5917105919868
68.75586969898255
77.18305934756017
86.19766332777425
93.05711874309287
101.1800090796164
104.1967034055859
103.1520099332237
93.00760176681878
83.96082923504612
76.44957017677315
75.28925041752142
74.7217095000354
75.31107771458018
75.27617862436699
75.71099230009278
75.68221753521773
75.8462284306711
75.65796677837922
72.46343734577201
73.34090819227761
137.3471251533116
35.66652198552716
107.1413691322508
141.3725517754291
166.7800913977008
189.7627600023661
207.8229251153673
230.9111821659195
253.8082308553716
268.7104102246831
289.8507051237431
313.5694141813112
338.9946124169905
365.1651313316717
393.7089236053376
422.0888617545065
452.2744400996615
481.1716731899353
509.8381813997481
529.8454725717968
512.3499339818493
493.2580197382134
522.7430998924649
525.1358537621593
384.8635443288493
199.6767153162946
12.87491054381208
44.4455498765275
58.54816836823893
68.19982134010748
78.29709682650802
87.32346827283735
94.50443167763365
103.0293136860272
108.5084202493506
112.7328149202813
109.3029316906633
99.05974040415985
87.30465388099991
80.49673107461658
77.75889962773587
77.81518200278779
77.36257956108909
77.54354063308718
77.27088075611719
77.11045657265355
76.71374062127711
76.20575981982297
72.32505055263923
74.71601081637537
136.6898115641289
39.8511129755572
115.2901017078622
149.6138585178311
174.5215449798519
197.0998913046936
218.2305680811934
234.3819460632025
257.75513888157
279.9681281001397
296.009867409488
317.4104894108415
342.7334647599853
368.4368846096316
396.8290685041085
425.8861848618467
456.4032107064749
486.9054484131333
517.1497026740666
545.117534890968
563.8303832573664
543.7326463807633
522.8159943456426
563.3340947834264
596.5682617692769
418.044931083234
203.3524915959662
12.92505039811715
46.13227569357515
55.55028701841895
69.917883559622
77.51335773602999
88.38397094844572
95.94330298908648
104.275593166349
110.4795635569141
117.2106523216942
119.0845816130144
116.0773110439237
103.141944807032
91.7734150035791
82.99089495507494
80.93363077005236
79.80863698485405
79.62313067485604
79.02880416635017
78.64331053681963
77.93930269876995
77.12864888261096
76.14205649075571
72.26777788862921
74.95180685761491
133.640152721448
46.04252918156434
128.5829622870087
162.7891970486405
184.7547266918418
205.9585528377501
227.1185667007423
246.7098476319033
262.0119671709316
284.2769765558323
307.7308778343965
323.9419580241369
346.7348099425538
372.4496187989977
400.4020088076217
429.1962300167405
460.3563997647794
491.3656677060293
523.402044251168
553.2207270142325
580.6563540228369
596.1000711456142
571.672115931702
546.398918016911
599.6803184628535
665.8917822735298
447.7583744819873
204.8608200462301
12.96260220153914
45.95288197493132
56.61039866664716
67.58123897128404
79.3649346685085
87.85321935838238
97.10846134614681
105.254601031749
112.0027136444179
119.1833667444682
123.4025922462293
126.1163318041489
120.8445488627362
108.1054085775494
94.57862655361726
86.28855432431352
82.92959230772311
82.05660676151516
81.01089606424624
80.32092224242641
79.35569065696492
78.29332325740073
76.92654145986631
75.43509857515544
71.33554219228267
74.05407014725537
128.925780303407
39.96897541986835
150.2661237656059
183.4287814368215
200.6194679641804
217.6534283161036
237.6438237167006
257.1999967760955
275.8666262755532
289.7214436000714
312.6914707832117
335.7624949121814
353.61142469986
376.999983046934
404.4593404981424
433.0449205075473
463.9240854491809
495.516088283086
528.3573081707485
560.0407384975964
589.8427718340697
614.3725092317835
625.0632355371037
593.5694392400978
561.9610667493838
628.4493280143171
727.7227477840066
472.6738677441572
202.9164995807941
12.86594315474915
45.38265152325462
56.64244306268145
68.71881890973852
76.94673276070283
89.41193444107618
96.54313772120082
106.4543394888031
113.3169603214369
120.7715767598367
125.5283258365
130.7248357340052
130.9458077552718
125.9609751905715
111.0377035045739
97.96210228365216
88.25152130355396
85.16189820581937
83.34952578080059
82.21171826627128
80.9000781459455
79.57699575103376
78.00193167655725
76.00153122338021
73.91214904970698
69.32804508794936
71.89147817205422
122.3782920651543
50.21140411987392
127.6082712100769
213.0764327937141
225.5400754117118
237.5780586747459
251.2702978976984
269.1151203617181
288.3333055361423
306.1236278877095
319.5138975181633
341.6067997135852
365.9120113117468
384.2449690558327
409.2481379773124
437.3117106325072
468.0180761975236
499.3720126251256
532.8648431997838
565.4605055694766
597.4508028268609
624.7372361680236
645.0773649488043
646.5539191032882
604.1374786995502
563.4475019392131
644.072400564478
775.3997641721151
499.6424257807295
202.0239695192584
12.78345596230799
45.01530233576218
56.3230403865426
68.7075908618328
77.82371704420815
87.56261041993753
98.12174147933676
106.5025676621601
114.6031045187924
122.2162914511964
127.5115160518648
132.9495692473951
135.4846155598445
136.3370314991042
129.0732181438375
114.4354302183466
99.78219549758052
90.43637065408606
86.37205428442812
84.43962255055521
82.64041398469618
80.9717064416525
79.13382027179405
76.98123088951006
74.12219165462596
71.12441215593576
66.14099520769918
68.53921866011807
116.2762350870116
45.54252975794343
164.9248614462062
187.32641721414
260.7835405799236
267.1638685987843
274.4682985703217
284.6019738845239
301.9709927254582
320.5850245867932
337.7555485986831
350.4077474977863
372.8649649473528
396.5109233324632
416.8907600184163
442.4440136926246
472.5282512975066
503.7530791932869
537.0475887280901
570.3743134346769
603.4643237471746
633.1846548362214
656.8933969422914
668.2610533310528
654.2124819135909
592.56562327957
540.7706207561309
637.5227538182135
828.5692661067748
528.9995369120476
181.008997452491
12.69943439761382
44.72024315522624
55.90414139647022
68.16450490420563
77.88943823349069
88.36618740800819
96.28433994976555
107.6591035793173
114.6832796720314
123.3565341652459
129.3344513467725
135.0528260020002
137.9871738779848
141.0761905730161
139.4747802866263
132.320102088669
115.9851067967314
101.6815492343567
91.50267639544867
87.32827563472767
84.70631424292594
82.54584839360653
80.34532728120493
77.95391313797572
74.97242912717959
71.08431004532363
67.1260456005362
61.91264614109481
64.04017536992217
103.9472558100804
27.75501818842871
196.1269124022662
236.3161441283116
231.6394767015383
309.4378162834395
308.9423364337367
311.5663570992086
319.0132166907829
336.0849937034465
354.5160939761072
370.9371642997196
383.5937272155458
404.6684122134422
429.5811840342604
450.4366593867659
477.9704417393176
508.5628553013654
541.6482016679789
574.9269706298355
608.849387935146
639.8448305925785
666.2900999604127
681.6766411937217
677.1539252916814
634.1613547737265
545.6295121846991
482.4863027385235
597.7291424018935
826.6379646170124
451.266523852338
252.2698857061233
138.86552789881
12.57476141015962
44.4489863679167
55.63844051655818
67.74976783284787
77.39836719767034
88.17086333276215
96.95712574008594
106.2324509294957
115.7980040248417
123.6583322550434
130.4055045889784
136.760321474665
140.3684611659257
143.7241790625454
144.2194101377581
142.9911703362842
133.4297181776816
117.5347249011323
102.2079957989662
92.2279664654825
87.41950687710722
84.4255457987189
81.7226248414587
78.98282746099338
75.75317531095189
71.71867106801254
66.81488084620976
62.26829601696556
57.56558166601451
56.11729430573109
73.01732009054521
20.4217541217675
131.5278755763461
221.8966217110256
290.6405123104923
279.4054576552325
357.3612952639422
351.5868410942383
349.5203018231937
355.1739656143089
371.9806831173486
390.115429319575
406.1934643143041
418.1029825304965
439.3454347851239
463.3457892441262
486.4093417047388
514.3952857619051
546.7561867583655
579.8481482334366
613.8621813589147
645.7709165203369
673.6810834460846
692.090225544283
692.2385492622624
655.0918201557695
570.2574545361337
455.6491735136703
386.6259975777895
522.6566011006272
727.6299989452611
867.5387577161755
216.3090817862367
125.15412390659
12.42263849202474
44.00303957809845
55.35183041428258
67.47211357807852
76.93955098624694
87.66294010448937
96.742452506332
106.9884830353952
114.3649143579967
124.3776310944499
130.6734517154204
137.7633834535371
142.2274583043181
146.0301498605043
147.0119648459073
147.8296164728149
144.0184631293525
134.4935517676868
117.3741024149084
102.3770328210289
92.00342999830714
86.9177364952693
83.39164407435628
80.14964692246194
76.57094686378373
72.28046248431725
67.20392515876813
61.72076064004145
57.40343725178808
52.5176589813872
50.08067396137722
63.49289323272321
20.98531203644825
86.02850075092103
126.0958537367421
264.0054968866411
348.7156656107087
325.8350230841902
407.9857025318922
395.0042183654028
389.4088022912359
393.5632386526376
409.6438974956724
428.3236614390821
443.2024573101316
455.8125087768086
475.0901258820471
499.935771339919
523.3291264480091
552.9193841343498
585.3643049020417
619.1858641572586
651.2463065018761
680.1606502581201
700.2308453627498
703.9650657678752
670.25871007786
584.2118040634408
456.8015186349985
333.7590364173602
264.5428339911495
372.937448304416
879.8483912425511
476.4856915439195
775.8323118414621
375.770975136372
182.5021268027265
85.46296271029837
134.518519372033
12.19642133697176
44.27533875429102
54.86639073083096
67.15823024220394
76.62663198501144
87.25157707619344
96.24688919250364
106.5891115072983
114.9981844005526
123.2794549021556
131.3812224153966
138.14066781543
143.1720554398868
147.7195879318665
149.4164021393765
150.5641248092332
148.8140098349969
145.0483041397951
133.3860608810805
116.7555673791789
101.328728998717
91.10333280944515
85.62812085673085
81.57393706798594
77.49782502112188
72.86797395531717
67.55515717961829
61.88504075626989
56.53864489752777
50.14186022407345
48.02047157959603
45.69452644052454
48.78278363739776
20.51331526112337
76.96228561353367
92.50649660883568
148.5572947381495
300.1667192156304
403.280204806712
376.7367376230827
460.1744635171653
441.8752242937755
432.3637730144927
433.5163674433206
450.4302223719966
468.6002809305512
482.900192013381
495.3970778483898
514.1144922134528
537.4691550154997
562.4956433254271
591.9947583195855
625.1064850963787
656.9717037560921
686.0692653177146
707.2080214815251
713.1158532324242
682.2189625250239
596.3841506775724
459.4427848077594
314.9382563613092
209.0596586104795
186.4163262681351
341.9191339999051
155.4603741449278
757.9680850197192
350.6984668866012
1004.216994696768
280.6735716428737
170.4267819482038
78.38469184230169
107.4466962908911
12.64882134697807
43.76549242370655
54.59772632605391
66.44822459486176
76.26067673508405
86.80522233152244
95.73149018018739
105.9417037866268
114.689190408619
123.8387105324479
130.2811845949209
138.5974903597365
143.5896695460423
148.6151137636344
151.1259165977875
152.7795540095178
151.5906533398768
149.7156777726015
143.72221543743
131.8871974692843
114.5456199102192
99.50565326582746
89.33544856683817
83.49544780785327
78.63828245813842
73.5328822502767
67.94634214815059
62.06378170967729
56.44554809525566
49.39330611995845
47.54734561351731
46.7136885892086
44.138226034227
43.52398509387424
44.8378517093799
19.74737447351149
74.35214855651057
91.63530481097878
109.515938485927
159.0913501861939
339.4634847873969
463.2629031984926
430.1518340447951
517.9639389364305
491.5771145426593
477.7664500694941
476.7075668206367
493.4992620836221
511.6192989317332
524.8651478911543
538.6748024907729
554.414009876203
577.8884797241923
602.2138170815554
632.252043911996
663.2754332983548
692.1476274796995
713.4781939050508
720.7371310933349
691.3959719617834
606.5113794160611
465.6333256284809
307.4740199995467
179.285819220538
116.1863832597704
93.55083100693938
126.7393318241463
92.15957273763652
924.2199678651227
469.0219604308555
149.0669287427983
894.106846984389
217.4005610896258
454.5190023536991
126.0940331429908
57.9421704393877
87.24526948747571
15.4997811664131
42.02073241202904
54.04794234406123
65.86336184048375
75.57869297456551
86.38338497064281
95.25626994243363
105.3745818039633
114.0422822750226
123.4590412973893
130.7582683384814
137.7746615624325
144.0391624318342
149.1055033829437
152.0142328756663
154.2977016180919
153.7956110956951
152.3240084490515
148.2822236754723
141.8463448143713
128.3513069579749
111.4008266077087
96.59061301771898
86.63085559264938
80.18711277967115
74.3695590668603
68.38868585870325
62.30390454822815
56.43276603447134
48.74512368383808
46.42128673294769
42.94139155838415
43.5222104293125
41.65330383481383
40.45259544736472
40.53584692202028
19.77129890545336
71.41828353167737
88.48275555149543
110.9318396870376
120.4672157528071
177.5138436702984
370.9914269135801
522.616878221252
492.1794642858408
579.0158728751931
545.7713718540421
526.7276977543665
522.3743389670888
539.7767322178264
557.2745511859729
570.2782939918749
584.0950030629912
598.2838689806428
618.7431142396499
643.2322542802407
670.7967355345456
698.7557472347819
719.7299567498751
727.4463843902136
698.9869134506084
614.3043850059074
471.5065653465319
307.4189107564832
167.6022131052514
85.30623548606209
85.49376500908458
65.32918802068018
63.71700047509511
57.23957108032462
85.60299057708204
614.8077800748739
333.4657328829535
81.53219567850114
1034.364984352614
193.858548601216
349.9956216756391
100.8674794264369
55.82799164393653
71.93595451677757
11.74126664541016
43.38827981102057
53.50546770574258
65.27824629275193
74.72706864960978
85.71532142414901
94.80811566213504
104.7551387368673
113.4070454650119
122.7918878155278
130.4875618998696
138.2366686910773
143.290879250158
149.4060738246385
152.5760232282528
155.1526755191524
155.2928674560879
154.3532506916182
150.9145005982104
146.1059345700476
137.8693274160394
123.719954382597
106.8465875344071
92.62379506849919
82.68270017669275
75.52701528118568
68.96209546451345
62.58292289479449
56.51765459618854
48.7504667915405
45.88999550758749
43.91147103629284
41.85595646861987
42.39535387034799
42.78071159187149
40.80366601130424
39.5224092773523
40.11127653292722
40.73056321194374
20.46411507890203
69.99512283374101
85.95181152651467
106.7936461448921
124.7940749658417
136.2111716988795
186.6949520839683
399.0698524097193
591.8270847736737
557.1926262415176
647.0679073318004
604.1837498199244
579.2095647949667
571.7556593609989
588.9632691502081
606.3324205559757
618.2894664178451
633.1047576784491
642.7123981959473
661.4785567595096
682.2435287835493
706.455121203841
726.2920171323415
733.8304891104144
705.3092490667422
620.3856519867229
476.1495765952004
308.9237888974263
163.8750828437902
75.25622821737718
51.55423350696452
46.39861351354028
48.32388593066775
44.64159484206841
39.77773392777193
48.20208994194842
548.9832065147829
142.0199252698158
45.53447947986319
861.2271885707416
732.9791882133413
247.942573695906
129.9833718689823
74.9890343626447
48.9653894188129
11.90393764280084
41.0803027951637
54.65692083239346
64.71484108717065
74.06823571123881
84.76041986588237
94.11671533498435
104.1942414406372
112.7583490288766
122.157141204779
129.8465131019377
137.8075468646153
143.7070691580441
148.9793772291566
152.9022687623721
155.7371669331404
156.1763317740148
155.7208272487848
152.9493686081223
148.3948658634368
141.8835650128471
132.3783536042529
117.311982543745
100.995717014385
87.3343626599397
77.3795331534684
69.77240622987425
62.94975624182654
56.6693126369936
48.17993142142016
46.77824504180309
46.24457549288281
43.46370671483813
42.87496775269065
40.94138350670283
41.38011645526716
41.9812492789551
40.45027476986132
38.61054001735299
39.32632865702742
39.00213328915645
20.58665089079953
67.90227862314559
85.42999839534438
103.9653668034362
119.9990329245442
142.8445673119764
146.7551255095323
199.3087463835355
419.7586285606567
658.3891333271021
632.9531395817852
719.6335371800193
668.3472074977724
636.2724299696288
624.0113233043658
642.4006777022275
657.6432163167973
670.1670504617148
682.7750502949535
689.4401459889639
701.5256901756264
717.9935958032211
733.5691876272912
740.0258383856276
710.8458065086242
624.8486269829903
479.2530275492562
310.2511377688233
163.3290912067693
70.88032810217958
56.71437249566358
52.44068371190177
44.3929919329948
41.31188281911874
42.28092973387319
39.20690194527329
37.33276302207818
37.6486006564222
203.7792285228263
78.96148598316343
42.78523426588603
689.6952869537954
725.4937336355703
197.3901934504592
107.4310220647975
65.90639954194299
47.82599271697164
11.68717479738989
40.66635050803937
51.44900374503769
65.14197855608279
73.88829913099072
83.93697911091169
93.05568036274109
103.4501911459552
112.1289124066843
121.490487942668
129.1706578135571
137.232387723406
143.3959718431409
149.2887122844893
152.6344487518795
156.0462693863257
156.8101134760775
156.6035228548507
154.3144602428996
150.1368336463337
143.9270536460056
135.8903644142609
124.9540376554578
109.4394356622215
93.75004197396146
80.76146278515964
71.07814599669723
63.49104375198065
56.89708221934256
48.60136178043198
45.88503835576213
43.94081507231051
44.1089902398225
42.70121189773435
42.08907155778959
40.87333029784923
41.15721749327826
41.48984787798624
40.16517703946101
38.41736717372083
37.71282671406816
39.12452413933877
41.37061330567776
20.42393587767808
67.52057283729188
85.23779520562471
103.0657704258263
117.1472825532615
137.2461143029156
155.5032615860385
160.3421074142969
206.1632807574055
424.3992945626119
732.5792827456974
711.495091745771
800.5793834740638
738.1752353269324
697.5502602989197
681.1117865012571
698.2298389836831
711.7987226036868
724.8303209027956
734.3188635150874
732.7916221655828
737.7302563740265
743.5780834893826
746.0223886401574
715.4472253322308
628.024113782731
480.6778179972496
310.8503706219823
163.6236391106233
70.63597579797297
50.85445215061657
42.07211012599526
44.04385937108081
41.12214819182453
39.66219352967154
40.39936105020798
39.13566921205452
38.35218054378725
38.03229651200814
236.0950279883161
51.53811521366249
38.94730702171832
42.47851551387455
816.9987722556669
871.890919080664
383.2954334828285
139.9308005883134
76.47889906645035
64.17623121482821
53.0033050774967
11.43601148233788
40.39267870002956
51.216601603369
62.2152771532331
74.19954945270202
83.53757260386205
92.20400205478271
102.3658510750963
111.3493800443085
120.7930218334911
128.5084944216709
136.5615206875914
142.8377983206299
148.887617117635
152.9580140197051
156.054187809756
157.1508338110079
157.2526352329127
155.2434601834605
151.3547861799647
145.4764150567699
137.6391865281279
128.0574652027674
115.9344678323474
100.2916918017772
85.43447623902109
73.4319052523939
64.37005538408243
57.25014427856712
47.96649513616222
45.83933038498143
44.07347719083798
42.95236961878863
42.15783173213205
41.55642775823193
40.31377364214158
40.67324557641402
41.16695356183434
39.79293548964693
36.76637894364058