/*--------------------------------*- C++ -*----------------------------------*\
| =========                 |                                                 |
| \\      /  F ield         | OpenFOAM: The Open Source CFD Toolbox           |
|  \\    /   O peration     | Version:  v1912                                 |
|   \\  /    A nd           | Website:  www.openfoam.com                      |
|    \\/     M anipulation  |                                                 |
\*---------------------------------------------------------------------------*/
FoamFile
{
    version     2.0;
    format      ascii;
    class       volScalarField;
    location    "2000";
    object      Ma;
}
// * * * * * * * * * * * * * * * * * * * * * * * * * * * * * * * * * * * * * //

dimensions      [0 0 0 0 0 0 0];


internalField   nonuniform List<scalar> 
18230
(
0.2801296495093856
0.4167428580667069
0.02337344363807057
0.2248945973040125
0.7782913951727349
0.1934229864320041
0.2288105917458514
0.005646887530019427
0.212484930220155
1.582867487160065
1.086256114036742
0.1181888857799229
0.1379976230517289
0.1728869035014368
0.007900719784921354
0.2029067920637843
1.319658082381832
1.702400464976863
1.095202983149528
0.08610265837541685
0.8123785649202787
0.005367706837678263
0.1766504748427143
0.01200068219698282
0.1961220007626663
1.332696343874496
1.447617724454779
1.663675833962418
1.115031079356475
0.05725682286229226
1.240530017408725
0.9710047787634463
0.04241097457812223
0.1648188387413732
0.01627843105968555
0.1907375147526083
1.326641125039922
1.460104608926821
1.411974262079288
1.69462132506463
1.145219511067236
0.04251320355270905
0.8065593267703306
1.259888866143597
1.039322879934367
0.07336064393715395
0.1588786607163719
0.02139480536784719
0.1847096986327435
1.311749651485123
1.44392721398094
1.394752466917344
1.464454209847877
1.679738073244284
1.180879854450474
0.0406541533286032
0.7689749387945174
0.8426510403603444
1.245571326246648
1.071518904638221
0.1012177597700694
0.151255027779435
0.02781455326486248
0.1802097201891103
1.293640545555339
1.421845004591366
1.381431685908893
1.459965488351833
1.452441886438604
1.69669488760863
1.217549411170209
0.05473942830097612
0.7209842518276606
0.7705703109487249
0.8418174812789929
1.24704895400013
1.116879451068594
0.1218242861915207
0.1437498211289847
0.03483342009359554
0.174318269101814
1.276623590201748
1.400079170566011
1.365168397264412
1.447161534285626
1.433305353723254
1.482916517812576
1.684284799643735
1.257845494265599
0.07965769244669946
0.6847305439477881
0.7239054307998316
0.773182758019257
0.8499691960504963
1.240095130558099
1.161508770356951
0.1445675605831864
0.135019075169909
0.04329804495757286
0.1668244134119675
1.254124872371972
1.379180673097318
1.343801480838385
1.425554170373981
1.416817215017271
1.469680228901928
1.473948503302659
1.693982930487068
1.303654697534351
0.1091098355993945
0.657471668582326
0.6918895283776
0.726157685517226
0.7779184396009888
0.8498097077167381
1.231698980683209
1.221786912327331
0.1744817544980142
0.1226456093954395
0.05228712505601053
0.1590939597086549
1.230869391274994
1.351637389167067
1.327055590907562
1.404607262337523
1.397966738565383
1.456406991553554
1.455230418328843
1.494660984502101
1.683944540805452
1.358107685058251
0.1427949668493305
0.6363224895521568
0.6659641114940911
0.6932850752106816
0.7319392411500394
0.778349773614513
0.8563928043060824
1.216151388796858
1.28504689946355
0.2211039526456583
0.1075231992587281
0.06373578001301709
0.1390378054349828
1.199012695971756
1.324248416177657
1.303198489232376
1.384617100289159
1.37814994495861
1.437703388371171
1.440535786074588
1.478758636143167
1.488256855549402
1.689581923372912
1.426182250885003
0.1964413556606946
0.6178319462896873
0.645368023987181
0.6674188789687129
0.7001227209162204
0.7322067479863598
0.7840404153664375
0.8558824400598357
1.185342814707239
1.347100480340913
0.2736846022699349
0.08273591798445458
0.0752177626693747
0.1199820330321177
1.117833327518816
1.282871596066782
1.281128251556038
1.358001371043472
1.355754101931368
1.417082151828828
1.42039668400504
1.465534680715882
1.471148269427345
1.502825709571141
1.679125567816163
1.502195499015908
0.2638337032998532
0.6004845627693731
0.628974996266531
0.6466844797550348
0.6746618519033144
0.7000857713927339
0.7388031765254682
0.7842351107868513
0.8625709184872127
1.141920432266401
1.39900492137308
0.3383271170325562
0.04363821084664778
0.08137942696183663
0.08958980851540639
0.9967810239770883
1.177462746424869
1.241236640781793
1.330832162239159
1.330629320205227
1.394637691203747
1.400745831924835
1.446414531572915
1.456815754143133
1.487531533956293
1.49824528688706
1.675597331009817
1.580495776196511
0.3456125849084651
0.5862393888110796
0.6131215925711068
0.6298373899260482
0.6544425705290081
0.6747955228765016
0.7073852595866181
0.7388477313631676
0.7906565153476333
0.8631484630613563
1.12164675767756
1.434932493916554
0.4094387141657174
0.03107165672516464
0.08313185042207821
0.06098079037626053
0.821200108741945
1.04489417764461
1.146896328058632
1.290091098601237
1.305262039021987
1.368306990210697
1.376084286793372
1.425908412038684
1.43697809784556
1.47346965227145
1.482231168296919
1.510259035441952
1.65981700019896
1.645691182738295
0.4420411847653397
0.5723903746727248
0.5984409770241071
0.6137832878719224
0.638259417947894
0.6545427157946151
0.6823505191065999
0.7075174690779142
0.7461359985374117
0.7912814093966906
0.869404907691136
1.106164671627343
1.455118697796927
0.4766886503298902
0.05979840562725199
0.08387649483741229
0.03727540122478729
0.723974060807015
0.8448081065716979
1.025762223559249
1.184261806804263
1.265584372179924
1.340971484073619
1.350975782984598
1.402721967275929
1.416314739899805
1.454150589706463
1.468109221196961
1.495668969615992
1.507311111413971
1.645337908338841
1.693556736471213
0.5441629863277015
0.5656214766054385
0.5857838388343614
0.5991813636273531
0.6229324300718976
0.6380914562507116
0.6625323704036338
0.6825203605671299
0.7150722140442225
0.7467332526184127
0.7981885982907718
0.870121344376396
1.096936719337451
1.463234109364481
0.5475768921026538
0.09184225026897515
0.08605162775360103
0.03558172257833309
0.6677638758970684
0.747740252224802
0.8392837185030743
1.052259403697788
1.160461258664762
1.300039907773911
1.324421334994887
1.376598060342979
1.392547572305102
1.43364242914465
1.448112098282211
1.481327698680323
1.492566916045912
1.517509061982804
1.624040209745593
1.72249631166573
0.6445908993121769
0.5726275521523478
0.5820589827768006
0.5876212074802631
0.6086585723267408
0.6226447567751262
0.6467636610409785
0.6627732482865052
0.6905115548900704
0.7158645929532095
0.7544600664763255
0.7996319562793345
0.8766036598708334
1.087511345684237
1.463633954062824
0.6144904839359864
0.1239510181060801
0.08956486311652195
0.06121443802284299
0.6358920459112136
0.7000864656419292
0.742404118582472
0.8544409665952424
1.037374614969015
1.192782323869924
1.281186500794727
1.349288634168797
1.366004519554624
1.410507580465684
1.427635564670951
1.461801189080875
1.478391172636791
1.503797378845304
1.51691981361919
1.611111740505443
1.736614118799071
0.7428925586352417
0.5652351913334753
0.5921902069778161
0.5840155208998665
0.5964111228558467
0.6083833122383093
0.6318265039039533
0.6468100462068018
0.6711300401485747
0.6912749776949615
0.7239467694816696
0.7561176881518856
0.8070258475349685
0.8778112793559278
1.081790384258611
1.459261822191752
0.6832045682996259
0.1678052537129344
0.09564617033878335
0.1039385606256354
0.6104291526581904
0.6688573564560193
0.6906476689521749
0.7582890762118391
0.8500449637546156
1.0606157840666
1.176249819990868
1.308234685435676
1.338772023858085
1.384507545603589
1.404135320163348
1.441237319644014
1.458177647149119
1.489000458594634
1.501938564070322
1.524832742512191
1.597806856984677
1.742143967499301
0.8373300582971579
0.5375221437385228
0.5886116825340904
0.5927547279224898
0.5935403164087616
0.5977703721239876
0.6181366387110008
0.6317580497388147
0.6557656889656228
0.6720451052947984
0.6998554137599765
0.7257247826804933
0.7643484457688339
0.8097760025616043
0.8844146902872313
1.075031854039808
1.450852110218304
0.7460441825675127
0.2217115635751141
0.0999616678501223
0.1573629374739111
0.5913309262742312
0.640833418338753
0.659695017955425
0.7109395558808117
0.7540861594612317
0.8640962272207643
1.048474148122498
1.200365744615348
1.295114568499707
1.357241021149839
1.377750678488736
1.418283456317646
1.437685825280604
1.469532013103366
1.488318568279425
1.511524700607877
1.525834478308666
1.588238098931917
1.741030432619995
0.9249878624251783
0.4894001455515086
0.5567426932205837
0.5875767451209062
0.6047550272262543
0.595095947054029
0.6063642895090079
0.6182954732970747
0.6413509924860401
0.6565166988278741
0.6809416937463786
0.7017153486503199
0.7344540566146148
0.7673651798786915
0.8178934968890101
0.8867657974793149
1.071518293375135
1.438887536896327
0.803543775002183
0.2775024322046423
0.09888591478810127
0.2186146708561904
0.5742517123961057
0.6158109152628263
0.6340537196471177
0.6800636912865837
0.7036575123908374
0.7691292152121409
0.8605961792569928
1.06878990795618
1.188687859181638
1.316023820748096
1.350320593851905
1.392403154473501
1.414323720685475
1.448917410285589
1.467877483004301
1.496470975114382
1.512178025584548
1.532077152292799
1.577668665038793
1.734943778285637
1.002316734042725
0.4674303020135515
0.4989110279938809
0.5567568107217571
0.6007931538855392
0.6051659513101415
0.6039172282125764
0.6081728818937869
0.628136258056416
0.6421242793793837
0.6660068770300847
0.6828630393583998
0.7109221669135543
0.7376295501788603
0.7763984904925134
0.8223192996677069
0.8934181138872604
1.066583345071753
1.424786699074812
0.8544509634111326
0.3345693050978066
0.09501336178907241
0.2839631140124674
0.5455003350780243
0.5923134226198996
0.6127285742532187
0.6521772892193541
0.6731779327286516
0.722762852949201
0.7653741247158977
0.8745987369917329
1.060329138783343
1.208034470964898
1.3065894506551
1.365091178464458
1.388419038004037
1.426119859028383
1.447727794496533
1.477046173409375
1.497044547834066
1.519286026649753
1.533947172601422
1.572844264694619
1.725706690297537
1.069668540397144
0.4685871583828515
0.4770785015209512
0.5037093886030727
0.5677284686158242
0.6000683817334524
0.6161465819461565
0.6059461047238954
0.6168660285948803
0.6293389872873356
0.652056004856237
0.6679413115912859
0.6924937224615438
0.7142667910498385
0.7472138487248899
0.7812381970524948
0.8315330101999731
0.8977361946432614
1.06399922787653
1.409181317704957
0.8987237248082923
0.3882924835754093
0.09401169786791434
0.3500424672261168
0.531037851843878
0.5718470171931409
0.590161160948147
0.6269599025712174
0.647364780936601
0.6917596468566719
0.7165057166809636
0.7810929209435213
0.8721083240838454
1.077411441453074
1.200766026250598
1.323481850192577
1.360934623520835
1.400669801860133
1.424557917901521
1.456681954997826
1.477621993540205
1.50331703513686
1.52149028164456
1.538218631199194
1.569673174741252
1.714971924387777
1.125251274554149
0.4853779756804089
0.4807421955627912
0.4822161802679674
0.5099105668636752
0.5675371711228564
0.6118989268273268
0.6171791177804441
0.6149728972574056
0.6194412849039844
0.6393159872234002
0.6541284802772803
0.6779603526578244
0.6959285022620953
0.7242865157937345
0.752340521261866
0.7914461554369485
0.8380648033566273
0.9063292223383278
1.061447761056207
1.392875157500726
0.9371401613048427
0.4410670206569917
0.1010615574459728
0.4146595976409529
0.5035314391629221
0.5496756535363827
0.5665668117430183
0.6026982774976914
0.6251156143043207
0.6636174383666247
0.6858878068456177
0.735578425646215
0.7779907388202261
0.8864536714409733
1.072003284177656
1.216234313533588
1.317034313984163
1.37342707739211
1.399264636613536
1.43416463873197
1.457188374627983
1.484405914029984
1.504753197803487
1.526550783154142
1.540428091335604
1.56844131975168
1.703446965595535
1.165781968419818
0.4674633473809996
0.4983090856766413
0.4848159291596432
0.4885548331393511
0.5134537675119476
0.577620154131869
0.6118409096515268
0.6282549593389724
0.6177309425720998
0.6286710201478454
0.6419580556678318
0.6644769816129846
0.6815079220917555
0.7063792007089008
0.7296238496016098
0.7631387821982542
0.7986937776236049
0.8489384706402509
0.9135317255193951
1.061534683807106
1.374531468665112
0.9669412805944902
0.4938212494819164
0.1212780986639361
0.4765944020434277
0.4834712291113021
0.5307348220017581
0.5472679817895624
0.5819565658254536
0.6015895147852837
0.6380711493262212
0.6597368460810153
0.7045096437799808
0.7309004565506096
0.7943150664961472
0.885568041977131
1.086956545995369
1.212090729619086
1.331096641042127
1.371806787471995
1.409466014575876
1.434751176289851
1.464186275294576
1.485964300392665
1.508944965022192
1.528849717971969
1.543844238448428
1.56759324685193
1.692112372822402
1.195776636518479
0.384236002611154
0.4740820478042692
0.5018283998857785
0.4924685573083138
0.4923562707999983
0.519627784256752
0.5779415531484081
0.6234380852641439
0.6301624227753085
0.627174272728659
0.6323210062544401
0.6522572405977112
0.6682780327710552
0.6922697680043554
0.711856368962843
0.7408706640302888
0.770758900221998
0.8106551772768098
0.8584505630551235
0.9247215171072904
1.063226613978051
1.356194765153555
0.9901864309528811
0.5440836518859657
0.1540283227705977
0.5377574947430578
0.4688541276300133
0.512965589772503
0.5260328884283239
0.5602322787763838
0.5786773619362757
0.6138659403557928
0.6371416968587756
0.6758552286856008
0.700614896865458
0.7491751821575294
0.7927752775672523
0.8993413078149061
1.08402297110611
1.225163815879846
1.327780225588497
1.382251731955161
1.410181796653753
1.442198798813436
1.465814939262274
1.490506973135323
1.510330097660404
1.53155005240591
1.546086796306133
1.567206474469195
1.681465426980873
1.216289479443507
0.2296685883288186
0.3726822244300981
0.4793936869162992
0.5100784654958678
0.4953393725646075
0.4987410550310601
0.5232661269272021
0.5877366651583802
0.6242784798358667
0.6414644839493238
0.6309424292664434
0.6422658813642433
0.6566005269875755
0.6792725904703164
0.6979544307261932
0.7234790257050678
0.7488220222510367
0.7833928809932709
0.8211382305293252
0.8720404084978994
0.935974922206951
1.068889476054838
1.340774123965483
1.007058164447457
0.5911741131184828
0.1958889528744781
0.5969421223468744
0.4544203503915944
0.4972772231275885
0.5071972408431936
0.5420133246553169
0.5592293679324365
0.5928518267766645
0.6134084853764994
0.6499626642316061
0.6737663837702814
0.7179133687673306
0.7467163352432954
0.8083644067426824
0.9002916334917818
1.097032830687065
1.223840680021967
1.338498040437693
1.382856795955059
1.418168208861093
1.444027068449242
1.470649646528585
1.492138845194504
1.512380429253251
1.532491264893116
1.54787262452915
1.567144980557526
1.671881722487869
1.228732607608069
0.09083168552061004
0.1991564390390741
0.3837921618484493
0.4844377401186294
0.512319759111169
0.5030910882577757
0.5026443201063028
0.5298882159661804
0.588866193625096
0.6359361290894852
0.6445201444406191
0.6411034555542006
0.6473412952771582
0.667582448663285
0.6852868933905233
0.7098090765469846
0.7316637356600746
0.7619728431670248
0.7944402645338191
0.8360309138723085
0.8859258827572327
0.9517840644284911
1.077696541773981
1.33027171794898
1.019738653010618
0.640170090592075
0.2406918484797858
0.6578349146629329
0.4399803882840152
0.4815089564575799
0.4926885574683202
0.5243799947481392
0.5392779908559432
0.5715345020973074
0.5907288533153493
0.6260582700611224
0.6498293217121131
0.6891800549328211
0.7163144776734734
0.7636720689885492
0.808690608632204
0.913167442269841
1.096549151263665
1.234647852814701
1.337984861279403
1.390975008589784
1.420315438919312
1.449324869062958
1.47251429930321
1.494519154697419
1.512801303748809
1.532584478248676
1.548626694302961
1.566917786285735
1.663248403768728
1.231478695087205
0.1675747004472074
0.06140782215510664
0.2207659214007383
0.3816422349090725
0.487850223322473
0.5207333369842078
0.5060709205833178
0.5096298523869404
0.5340736275929951
0.5988675333595325
0.6379564594679399
0.6564022096100832
0.6462546630696845
0.6582893395983459
0.6740248139592424
0.6973565901560094
0.7182217258729566
0.7452128785492829
0.7734374347859898
0.8101525671607921
0.8510707222794066
0.9044954861327223
0.9697469150131995
1.091140581594363
1.326603068818645
1.029960940095725
0.6832762789581354
0.2823834900374009
0.7190771113619113
0.426384254924508
0.4669822574904156
0.4775971393637646
0.5087904927541703
0.5209064480294907
0.5538390766390492
0.5714436516309976
0.6049757320341149
0.626293068762748
0.6634777643201015
0.6889490018773815
0.7323838403877366
0.7637442697479691
0.8232523058436712
0.9158670244384881
1.107565604904849
1.235669203718935
1.345643469104106
1.393028519430029
1.426109143048913
1.451595353382648
1.475310717957545
1.495239384708737
1.512722487041648
1.531272415814144
1.548235114913438
1.565881831630552
1.655115153827636
1.24109636289743
0.6532180528855965
0.1706477046484818
0.08799624609815301
0.2113426882666209
0.3886123380281461
0.4934651794622326
0.5230993631653829
0.514401934362106
0.5140674387645841
0.5415047877332697
0.6011560493285659
0.6501038867709008
0.660914732684229
0.6574809200451348
0.6651843812789787
0.6862652088093943
0.7060715529605441
0.7320305353482155
0.757003418602512
0.7897928765176248
0.8260112661766326
0.8711384387255624
0.9254089377996132
0.9942009824000088
1.109771595590376
1.330901035620041
1.043480900968019
0.7366753299256985
0.3202785010686281
0.8143028145272193
0.4139650934133077
0.4529198397271439
0.4628702169391181
0.4929119848790289
0.5064649864511399
0.5359780063564402
0.5520752797464784
0.5841168971130544
0.6044700796162294
0.639748320866296
0.6647966450478894
0.7036609906747179
0.7331640683487005
0.7789801648894704
0.8256449757203971
0.9277510054231708
1.109006762610304
1.244236824203472
1.34726712707928
1.398812866427513
1.428770693943453
1.454960977474923
1.476484222773686
1.495509458847198
1.511580034211975
1.528199783925697
1.546287167628521
1.562987123979773
1.646360977865469
1.206246758016526
0.9656230803937372
0.7229415265556249
0.2013609179469237
0.07798248664705619
0.2251976550512167
0.3883982348016048
0.4968942088358279
0.5319753873251294
0.5180021283589831
0.522031103409636
0.546605075542185
0.611602047868373
0.6536040573125645
0.6735891627937698
0.6643973487256394
0.6776569534801878
0.6952943028461398
0.7201475419819848
0.7440334745660855
0.7738270201047986
0.8062038580023525
0.847139258414535
0.8935052505519563
0.9531555499073874
1.024226300093088
1.135397644052609
1.344938715875931
1.061299204539478
0.7858925298148294
0.3402370270170019
0.6497385358020454
1.105207929333924
0.4021101527520278
0.4401321725698198
0.4491600837207852
0.4785285382588201
0.4909474998895734
0.5201005802710023
0.5338401486264254
0.5664228998278616
0.5851482422691716
0.6184132290644052
0.6413144408287121
0.6782241644969051
0.7057547883773827
0.7477770243890413
0.7815490787812346
0.8389849963049523
0.9320476203951824
1.118095787100034
1.246642781271007
1.352538792205429
1.401331527157929
1.432538954049351
1.456698694768796
1.477341185281715
1.494621006212504
1.509251425267623
1.524178636097223
1.542119094812042
1.558327528136225
1.64176589515801
1.409554944385708
0.9937134078942652
1.062447834012244
0.7393053854275391
0.2024946718319876
0.09709172467468097
0.2199154138818696
0.3947038193843427
0.5030112920947578
0.5350582751109515
0.5273225329848776
0.5273288318739042
0.5551082682060202
0.6154428480435179
0.6664831052524545
0.6800295508449729
0.677182952089036
0.6869944624718772
0.7096675841035044
0.7323976317863733
0.7612205260359957
0.7906608933594907
0.828178944684367
0.8705551123244557
0.9231025883807726
0.9870627300418848
1.061872418410738
1.166796010589833
1.36537565832983
1.087784369962501
0.8877512191381227
0.4440846778382262
0.6407915135605723
1.110130923307789
0.3902954225733685
0.4277491237209041
0.4367260402101301
0.4644454519338024
0.4761510148434361
0.5042611244167442
0.5192680244600186
0.5485676691293477
0.5661120895897975
0.597975042397246
0.6198034349953507
0.6546345264296638
0.6813815764258896
0.719247809144461
0.7512348241909275
0.7951970409807586
0.843754789078826
0.9428102605575545
1.12096992835689
1.253063643440307
1.354480834072933
1.40493781612436
1.434557643578437
1.458169662279844
1.477066017034704
1.492462929632078
1.505562767522114
1.518610027345834
1.535988557262037
1.548464035849239
1.604824290841718
1.426520473222202
0.9577391738910291
1.061758440894316
1.049711965235186
0.7682105156989348
0.2285483107924767
0.09146424642803895
0.2324605665505174
0.3962013781888907
0.5071837310164975
0.5450477957032043
0.5318904277102482
0.5367635495366858
0.5615064233352789
0.626767480945908
0.6719921318250645
0.6940522566387274
0.6865629864444804
0.7017890377177849
0.7221656794889977
0.7499841250938045
0.7782987071002219
0.8132924333329815
0.8523399456665185
0.9015676889676327
0.9593814119452124
1.028932281454057
1.104503113493098
1.202083066737551
1.382360107784772
1.164258281231532
0.8400605842329896
1.050196127867696
0.4361263285416199
0.533322360358807
0.9598795463313214
1.214450281202031
1.111897483883198
0.3804479272673077
0.4168610573094595
0.4246831894952374
0.4516116868420392
0.4624801054134061
0.4899234805182269
0.5036103254588834
0.5325832241851406
0.5482775738454035
0.5800630691405785
0.6003686792962687
0.6330952508925525
0.6580616833010077
0.6941427381453992
0.7237934398263103
0.764183790005972
0.8005779150945558
0.8552768502033855
0.9485613883062058
1.128061620954076
1.255984469735642
1.357422692386493
1.406708399085693
1.436213250271698
1.458432289902186
1.475444312255273
1.488688407393956
1.500230733016572
1.511370042060209
1.523537856871022
1.53636827759448
1.57992439633485
1.533974080424514
0.941304822197728
1.009222825043927
1.044677237022284
1.091881693501511
0.7899114090061204
0.2341124158688906
0.1094279429268454
0.2304275142066972
0.4027601004342407
0.5144243926892376
0.5492327673712565
0.5427727062763064
0.5434275494316935
0.5715398814279187
0.6328517901408496
0.6861992589462383
0.7031737999743692
0.7017587207229593
0.7146082886251407
0.7401855886404528
0.7673425648436448
0.8014272945155412
0.8379281277923263
0.8844462596171412
0.9396132388855261
1.004153548735277
1.075775154708039
1.149624225057355
1.24035045596755
1.386276085406972
1.09001011849307
1.370408436606334
0.8743925189328953
1.064386390744229
0.5588382274087795
0.5326810789791229
0.9918376727723007
1.164335832532128
1.123401262082278
0.37513522576085
0.4064646592570006
0.4131998870054179
0.4389751129299607
0.4499953231273566
0.475757099984398
0.4888938076849124
0.5165969084763908
0.5334856898369704
0.5621490075048462
0.5815992468522833
0.6130834368313151
0.6366372318250819
0.6706674308650523
0.6994185795474086
0.7359246496818569
0.7704466682019911
0.8121267443409423
0.8622616013940052
0.9579986172907238
1.131665809373427
1.260206202206244
1.358433813607755
1.408009603638654
1.436589924642969
1.457193007357952
1.471687078375859
1.483353019111267
1.492982700663749
1.500521303384093
1.526204281593456
1.503630824505517
1.534314936172023
1.581843737201297
1.543839756019369
0.9238766545006448
0.9911782391629554
0.9952914399058255
1.078659274275837
1.092010499526904
0.8204989943914591
0.2619104688876933
0.1080990571739541
0.2434922982995829
0.4060685467726853
0.5198624837185386
0.5606914575788666
0.5489136651375786
0.5547772189610625
0.5798608206836264
0.6459938596192145
0.6945553163352836
0.7196938117910364
0.7146717941666367
0.7332503725439148
0.757799201019759
0.7910090591963936
0.8263510240679339
0.8709412180484032
0.9240479085152717
0.9864815065953568
1.054128112283194
1.124773513504347
1.195105658164428
1.267603315424771
1.389394662455572
1.27168511899501
1.428120171950786
0.8565891081720033
1.035325425249976
1.158363924465721
0.5602377809441776
0.8229504736728988
0.5392184035462783
1.109837619438365
1.31463425205212
1.128945846785164
0.3710177835201117
0.395799229169432
0.4033706138675858
0.4275798057631723
0.4377640174899148
0.4629258255415779
0.4750450644430308
0.5021815745903224
0.5174281266938234
0.5462012537362103
0.5638315019108763
0.5948885124296025
0.6171935032145838
0.6491018887640142
0.6762150684560652
0.7111308147109269
0.7430361845042835
0.7814243127792714
0.8198905281856079
0.8721997817937481
0.9649402523493076
1.136658113915968
1.262513078838286
1.358876362408459
1.407739981328528
1.435268285757781
1.4534272794943
1.466206216583348
1.475462144531165
1.481693662906348
1.485512822686873
1.512017895512159
1.491301758887478
1.524320474525724
1.570364261810667
1.559403082436325
0.9066928900753146
0.9706877569239382
0.9772771364761454
1.026559309047001
1.06866495375113
1.12435629095684
0.8556406352846841
0.2723637443920076
0.1277094298613269
0.2449373631557252
0.4139257852525653
0.5286954016882692
0.5667037054959899
0.5618267200798437
0.563490544701479
0.5919966743385306
0.6552354896468471
0.711225638170797
0.7326878438520426
0.7339711911779336
0.7512739397874912
0.7820713006155771
0.8162687513045854
0.8600390375868412
0.9118972419747216
0.9727088678653721
1.038830400226318
1.106137622844541
1.172895264004338
1.219004688048696
1.278665355526884
1.247419309423056
1.402017414426827
1.425081423987835
1.260546719896125
0.9790002843681145
1.061662279261431
1.152366055695612
0.5796974332093537
0.8984988990593
0.5477998293051302
1.122986225641331
1.208555596837554
1.140789205210476
0.3526516523319644
0.3853686064510758
0.3955095119754996
0.4169897102296689
0.4262897390913636
0.4503301989025157
0.4625521931890028
0.4879016833234089
0.5026845342579384
0.530152822920009
0.5489442626935144
0.5768896975867708
0.59843065861703
0.6293864121215392
0.6548288229710977
0.6877223709993501
0.7187495325447112
0.7534450862929996
0.7898628882144088
0.8297825646597077
0.8807097332928681
0.9731098988948838
1.139946797049719
1.264486388396138
1.357753686525902
1.405641121236556
1.431352396198611
1.447937366060126
1.456878744871856
1.463232050282224
1.466903240792281
1.478366241315722
1.514643888593273
1.494192529770729
1.478995538726197
1.523810756665683
1.57345667004155
1.527702941049515
1.564461719023127
0.886650942235779
0.9489044299731364
0.9581230630441815
1.007774188706082
1.016161665490603
1.09759201009541
1.132692185179571
0.8872441555585566
0.3065431769155513
0.1318875175735008
0.2598285344081126
0.4195639530139507
0.5362093790181864
0.5802797422400015
0.5703997439277364
0.5778143618248698
0.6034327499106075
0.6717447642057699
0.7239131729415137
0.7534531124183718
0.7524279430650908
0.7763950782600529
0.8076858251492399
0.8506853544565781
0.9021255176934262
0.9620313136834988
1.026973040940486
1.093187388326578
1.157319075138465
1.202789658942159
1.215302829133268
1.26314059900113
1.246932928477812
1.377463380795461
1.418316031091568
1.34359677389922
0.9998791037886432
1.131072497620755
1.245430710302962
0.8671337755987087
0.5561372411143477
0.7531357805458975
1.074524161221519
1.142529397388006
1.292674330976275
0.3441191250355377
0.3757724807015014
0.3860280732383092
0.4063247166094657
0.4163461949351603
0.4388523189689041
0.4503509751932019
0.4750202973638843
0.4886044288427416
0.5157470919036722
0.5326321779506255
0.560994204169875
0.5808519204771379
0.6108811891599846
0.6353323711368882
0.6661966782456891
0.6955582710895512
0.728875878923538
0.7625690244087002
0.7996331458205382
0.8391227108127121
0.8897848591818976
0.9802605171751275
1.142876685634959
1.26502015556157
1.354910415448666
1.400838508238206
1.424780326909464
1.436487203393266
1.443109128709461
1.463408190012268
1.446140572340628
1.460558026077531
1.462363268828976
1.505016326211258
1.486977935530386
1.471065968268998
1.510437093343099
1.561213623107695
1.516621055732018
1.565636919660003
0.864249002008
0.9204269542858629
0.9385809171281521
0.9860563824033716
0.9969132765872689
1.046260341232692
1.091638111218787
1.156616079313481
0.9334852858240488
0.3271149506057726
0.1550835757871988
0.2660518836088506
0.4299485049465581
0.5475093874110991
0.5891703340560533
0.5866516487370702
0.5897998667112772
0.6188737890905925
0.6861116522457192
0.7449657098347049
0.7726799149382362
0.7787463008244356
0.8027057688400664
0.8429160365973427
0.8939333306950392
0.9534246722537337
1.017895535844996
1.083141280323382
1.146413840346824
1.185433647890576
1.202978405290769
1.189663186177441
1.214380203041963
1.260156778957201
1.231236141261294
1.302615423653081
1.410666757785148
1.407821576294495
1.100553568195483
1.138008422655361
1.277115904915748
0.9798096986881907
0.5561374678915749
0.8111154891862201
1.105228145966641
1.151350793724905
1.291403431785775
0.3352797655886695
0.3664601416040288
0.3740255333916566
0.3953858602409656
0.4076794678633113
0.4279206054377472
0.4389411528998632
0.4624414455829594
0.4759934469141101
0.5014706232421247
0.5178983300052011
0.5449774429410161
0.5656636620221069
0.5928138347501221
0.616596998119225
0.6466283509026549
0.6741883012556235
0.7055327517018941
0.738383719039974
0.7723997152369161
0.8093208264750349
0.8486964608122768
0.8986870123677227
0.9872045258334967
1.144560599670533
1.26413149985478
1.349921253740876
1.393362575769338
1.412653037104875
1.426693716156299
1.428881276320077
1.451785863965207
1.442123667876767
1.452261810825652
1.462191881179452
1.491110710376242
1.474349223622148
1.470044247707998
1.504128563761953
1.520492387650141
1.56566125948335
1.504397925222117
1.466893589423331
0.8321627896839626
0.8970474614854649
0.9143676714445617
0.9627619096873283
0.9766772726194516
1.026503586293496
1.038857898456046
1.115973337515773
1.174206049224941
0.974979302279472
0.3688990874665271
0.1673462473336505
0.2850823831611984
0.4392692500298674
0.5586474544344282
0.6062942282675107
0.5992252456980328
0.608462058522609
0.6354022695254079
0.7075436658594005
0.7647704780067517
0.8008475485683252
0.8061626779991393
0.83939489162153
0.8873607687447338
0.9462764254370702
1.010508526265353
1.075456980074694
1.138184767451575
1.176721199295699
1.180635831604057