/*--------------------------------*- C++ -*----------------------------------*\
| =========                 |                                                 |
| \\      /  F ield         | OpenFOAM: The Open Source CFD Toolbox           |
|  \\    /   O peration     | Version:  v1912                                 |
|   \\  /    A nd           | Website:  www.openfoam.com                      |
|    \\/     M anipulation  |                                                 |
\*---------------------------------------------------------------------------*/
FoamFile
{
    version     2.0;
    format      ascii;
    class       volScalarField;
    location    "2000";
    object      nut;
}
// * * * * * * * * * * * * * * * * * * * * * * * * * * * * * * * * * * * * * //

dimensions      [0 2 -1 0 0 0 0];


internalField   nonuniform List<scalar> 
18230
(
1.215484812691941e-07
2.250881154349094e-07
6.99863039595242e-07
4.65641797949983e-06
7.027458262234476e-09
4.839250419490696e-06
9.107410482239243e-08
7.777591818806931e-06
1.473967157826268e-05
5.022018484499949e-09
3.866716908549109e-07
6.643162513170795e-06
2.866038180364935e-07
3.863930165450832e-06
1.907654234902798e-05
2.335567888731047e-05
6.850331960653516e-09
1.620718658986782e-06
9.144993849069286e-07
6.870502476395193e-06
6.927189917165022e-09
2.619963025692278e-06
9.731620161005615e-06
3.24017431631971e-05
3.419308255875604e-05
5.70634797826546e-09
1.535591058982467e-06
3.935607161038216e-06
1.202776007477957e-06
7.041873307682996e-06
1.684831472185873e-08
4.885289565833855e-07
3.446399483439671e-06
1.579261488574206e-05
4.230993666194545e-05
4.658576239557022e-05
7.43187676866884e-09
1.689420195053247e-06
3.857395257241321e-06
5.842082385771989e-06
1.687165535449708e-06
7.272955790719901e-06
3.247067462245212e-08
5.78533972395887e-06
1.810434579088104e-06
3.724581926838186e-06
2.250299396118939e-05
4.448913960359335e-05
5.984304842451367e-05
7.497648967626873e-09
1.998211938597561e-06
4.020395184193911e-06
3.607055962133981e-06
8.278144898468e-06
1.958430299605294e-06
7.648155112102684e-06
3.00295512184189e-08
6.231131871361281e-06
1.489026376982789e-05
3.030058685429244e-06
4.029385043201676e-06
3.066618838777185e-05
4.672516077535996e-05
7.187202037829171e-05
6.650000577863864e-09
2.05531314623911e-06
4.215999545940325e-06
3.549277976363993e-06
8.32099767955993e-06
1.15609297064465e-05
2.212266926220451e-06
8.223152612048467e-06
3.543869382502999e-08
6.118402660435325e-06
1.493697379001747e-05
2.515600716217335e-05
3.905753824336616e-06
5.017363101571887e-06
3.911169580112657e-05
4.841047007511736e-05
8.254310205345538e-05
6.865386515092366e-09
2.063030956417711e-06
4.233736034483967e-06
3.859355405184401e-06
8.724412318398816e-06
1.054732568816583e-05
1.328148876487073e-05
2.573523557454549e-06
8.980339297428001e-06
3.301948185525658e-08
6.508808534422695e-06
1.500616118721727e-05
2.632383624618069e-05
2.956920235233995e-05
5.020308251108219e-06
6.354086473793386e-06
4.699162918012656e-05
4.973792487011563e-05
8.970854455599223e-05
7.022732213001546e-09
2.022726180546446e-06
4.288574534574901e-06
4.031601045971433e-06
9.29889970831227e-06
9.517181639778316e-06
1.805052949649534e-05
1.58664013570231e-05
2.984018371830049e-06
9.870543898997117e-06
3.352222211683767e-08
6.400467488347808e-06
1.537705176734544e-05
2.65297555744156e-05
4.125773439545618e-05
2.993170266048911e-05
6.630306456544364e-06
7.34517365322794e-06
5.215878079581816e-05
5.059521054454699e-05
9.252843344999079e-05
7.016758642119504e-09
2.075009156333133e-06
4.41988703667382e-06
3.89365427225972e-06
9.618179887494473e-06
8.925685677708129e-06
1.885318471930796e-05
2.521420299178812e-05
1.699098050904344e-05
3.471016405172307e-06
1.112843975065208e-05
3.774952287608253e-08
6.247417915363373e-06
1.523433792867157e-05
2.672403105276367e-05
4.095084592239164e-05
6.054709548250897e-05
2.522257025935046e-05
1.028783398690578e-05
8.785457397842004e-06
4.740871265831973e-05
5.259157552211359e-05
7.481519729822567e-05
6.97374320752154e-09
2.09290502763022e-06
4.601602573380994e-06
4.510297255948005e-06
9.89684289316319e-06
9.301617988783715e-06
1.965361463334759e-05
2.078030720465518e-05
3.45690361200539e-05
2.021952941272177e-05
4.216139612716562e-06
1.267588262779367e-05
3.839965534159528e-08
6.326082548023944e-06
1.49402027529433e-05
2.639683075890919e-05
4.09606897730046e-05
5.889130134573834e-05
8.473380903960658e-05
2.336332880436873e-05
1.591011190549842e-05
1.121370030015108e-05
3.621108430112576e-05
7.489219446746271e-05
7.505045555475186e-05
7.463613413616868e-09
2.205649484086517e-06
4.855687606064502e-06
4.754260423716577e-06
1.038689310658127e-05
9.489739209507187e-06
2.022805493540023e-05
2.027031105672328e-05
3.588212310035844e-05
4.541864818911666e-05
2.075246412876462e-05
5.296614954320774e-06
1.441954732119735e-05
3.837416255473199e-08
6.321364979122953e-06
1.515933768630604e-05
2.597233593206939e-05
4.058448807694685e-05
5.898988429788311e-05
8.120778855434529e-05
0.0001138734114503529
3.164571825693861e-05
2.576124851069163e-05
1.427588770219469e-05
3.802582563452135e-05
9.267793544612159e-05
7.240388926050045e-05
8.739518198176677e-09
2.558536593334122e-06
5.313786837236397e-06
5.234046293274561e-06
1.092660218822968e-05
1.031585739534715e-05
2.088136672611125e-05
2.009222308006402e-05
3.687461018574124e-05
4.630969230964688e-05
5.81747624532506e-05
2.339389689684134e-05
6.600822699203771e-06
1.639598592044654e-05
4.284096671031707e-08
6.276031370329454e-06
1.504704040840651e-05
2.623679848958746e-05
4.015157652775461e-05
5.845378111478328e-05
8.135129573956238e-05
0.000108840188210695
0.0001464938731351859
5.488280954256643e-05
4.300230412406884e-05
1.912725564666025e-05
4.542511707384843e-05
9.278072502639931e-05
6.439578295175531e-05
1.259752733624708e-08
2.788233512037808e-06
6.170822401150966e-06
5.39668451700442e-06
1.16555902205705e-05
1.032798015540086e-05
2.170906266438932e-05
2.149311418568883e-05
3.778585170617587e-05
4.626815661965659e-05
5.949969955518167e-05
7.303372459996785e-05
2.294103998299257e-05
8.518654626550179e-06
1.884612107478014e-05
4.247535746971955e-08
6.594539782992704e-06
1.473826639118893e-05
2.593388299494186e-05
4.033058980182262e-05
5.789084837496667e-05
8.052608732125261e-05
0.0001086919564196282
0.0001420895569218704
0.0001753324457167721
7.130090043177977e-05
6.349902473768482e-05
2.506579785230935e-05
4.372570185168563e-05
9.440532503189708e-05
4.979795010555816e-05
1.648600862978686e-08
3.791181843849445e-06
7.092403037535437e-06
8.628847538983773e-06
1.285983094072758e-05
1.110649889394141e-05
2.278488134362446e-05
2.077763242478196e-05
3.895518883649385e-05
4.732461238955849e-05
6.086299749286857e-05
7.438616208660004e-05
9.01377685229357e-05
2.612477817021869e-05
1.108700573179967e-05
2.261680642427169e-05
4.386824964304102e-08
6.579230122229113e-06
1.504024581797973e-05
2.549393202352049e-05
4.003376362907846e-05
5.789742953128053e-05
7.970175012202706e-05
0.0001073343797118187
0.000141670232522104
0.0001822836734415873
0.0002078235105207627
8.808114606449726e-05
8.567404132731065e-05
3.229250474873988e-05
4.555094345529395e-05
9.804037284292437e-05
4.533368375409482e-05
1.642508808479538e-08
4.267582898373466e-06
8.180978919318697e-06
1.148322235111767e-05
1.511065267417824e-05
1.323105315244948e-05
2.397985951220718e-05
2.29935258676805e-05
4.015283313768751e-05
4.781301938808449e-05
6.211900637727641e-05
7.601175575930246e-05
9.13120837755322e-05
0.0001097014550525069
3.173101220975223e-05
1.409538481623759e-05
2.719054668238812e-05
4.717349688778593e-08
6.357225506293938e-06
1.50994365411578e-05
2.582123574407674e-05
3.932715982892802e-05
5.761000869728902e-05
7.949174548940185e-05
0.00010623555509028
0.0001397867193484961
0.0001814175018888054
0.0002304297646280755
0.0002401914805180005
0.0001027956754285655
0.0001090874461003432
4.05542374146461e-05
5.19192907678286e-05
0.0001035964577648128
4.620994082959574e-05
1.773130601970005e-08
4.025776505092461e-06
8.703642439615701e-06
1.36367597689507e-05
1.760430559953287e-05
1.45718864219847e-05
2.598505147636531e-05
2.455407549603193e-05
4.161192709624938e-05
4.798113027886227e-05
6.386388257764578e-05
7.750047770374183e-05
9.321585895708132e-05
0.0001111158837982852
0.0001318695021072155
3.999744064823375e-05
1.769245639357372e-05
3.290238674748532e-05
4.468500561996198e-08
6.72778085603309e-06
1.482687020305568e-05
2.558999539413545e-05
3.956400767440798e-05
5.649388947943926e-05
7.906457422097164e-05
0.0001058212428168019
0.0001385074379758803
0.0001791926502799435
0.000228694094033606
0.0002871618989140275
0.0002774496540572324
0.0001211451690598545
0.0001401000944897247
5.059267188046439e-05
6.223585009083498e-05
0.0001119264727131401
5.009260073019612e-05
1.955360394453694e-08
4.082233092462574e-06
8.292877949673005e-06
1.419994473810215e-05
2.025431930888154e-05
2.214426783894255e-05
2.980545381507774e-05
2.579337916022316e-05
4.324248418037405e-05
4.842862435386884e-05
6.568831434435469e-05
7.943611033583856e-05
9.494503012622836e-05
0.000113255811892415
0.0001338057877043962
0.0001573531548472299
4.613327258852377e-05
2.215797504098185e-05
4.00241922363055e-05
4.715624401756654e-08
6.580528418175324e-06
1.52753744462769e-05
2.541585647272334e-05
3.934068592171327e-05
5.663317481140182e-05
7.792932709862949e-05
0.0001051604737279934
0.0001378820748513497
0.0001772150707869462
0.0002262611971047639
0.000284465383885017
0.0003533091489058722
0.0003188473202002253
0.0001395159070404364
0.0001834372071571998
6.337848461488867e-05
7.582787255735928e-05
0.0001248069796084445
5.645439841172533e-05
2.247837684737062e-08
4.149071960009477e-06
8.380670720041325e-06
1.364320454980211e-05
2.07623490883634e-05
2.813399173917446e-05
3.403491931158928e-05
3.111376058814354e-05
4.604739191580102e-05
5.039644098229682e-05
6.768045523253789e-05
8.145190201032295e-05
9.710898832457022e-05
0.0001152729027855458
0.0001360987038783828
0.0001604014054793156
0.0001867763117375454
5.537714331784113e-05
2.785548770664319e-05
4.958033313718487e-05
5.445263858389079e-08
6.688607154809195e-06
1.50908677974221e-05
2.616445542685677e-05
3.889370911487878e-05
5.649989213618088e-05
7.789596830642494e-05
0.0001038436288472844
0.0001366886656211023
0.0001764043524052658
0.0002237396733537421
0.0002815279643909537
0.000349660237409581
0.0004298324216428071
0.0003643216788083137
0.0001622805515656539
0.0002439546152232049
7.95561224191613e-05
9.557334890542681e-05
0.0001434086644021523
6.329289577088785e-05
2.7721985903368e-08
4.330526413274494e-06
8.600411507689795e-06
1.385670989283611e-05
2.001247658174455e-05
2.865085217405226e-05
3.75737527996426e-05
3.850286500082694e-05
5.132821217850578e-05
5.145344770710252e-05
7.002494100173952e-05
8.369657879186567e-05
9.947355849036592e-05
0.0001177342091631643
0.0001385556040778761
0.0001627801718666406
0.0001907865417523319
0.0002210501384689036
6.749069399176241e-05
3.510151450490871e-05
6.144852554114851e-05
6.084948658551847e-08
6.908660826947254e-06
1.557765597988369e-05
2.60680494357827e-05
3.978152469344444e-05
5.568230460650421e-05
7.730430092887906e-05
0.000103629381641489
0.0001351496548644791
0.0001747963582548841
0.0002225372878065425
0.0002788524898464035
0.0003463563087241522
0.0004255549401797034
0.0005169684778635331
0.0004214382777537337
0.0001870503279857785
0.0003265598526524186
0.0001001849336443339
0.0001229864389474237
0.000165199439644871
7.084092703999271e-05
2.183469067791922e-08
5.973224581986372e-06
9.113521811474471e-06
1.427841143653241e-05
2.036315132429329e-05
2.617446256194864e-05
3.806784822057821e-05
4.835035422907777e-05
5.747009782626711e-05
5.622924601554627e-05
7.401225534991609e-05
8.646700354118867e-05
0.0001020369203946625
0.0001204802482179266
0.0001413829604665183
0.0001657493040852498
0.0001934903070775542
0.0002263721508177109
0.0002604859665672969
8.350855495813077e-05
4.421200406605807e-05
7.669065223017445e-05
6.595635834803835e-08
7.053108145470476e-06
1.640637061431344e-05
2.697612876750687e-05
4.00556222012104e-05
5.666278333883047e-05
7.644918955908731e-05
0.0001028844863170667
0.000134760872632622
0.0001730358581804072
0.0002206801670867231
0.0002772543542221773
0.0003433651050779946
0.0004218715608206326
0.0005126006150695135
0.0006147662383236695
0.0004828201805690629
0.0002200205418724043
0.0004431311968663614
0.0001266017968498181
0.0001599739301190156
0.0001912369752372604
7.964216809471251e-05
2.83755585628273e-08
4.444777345149945e-06
1.068954014471917e-05
1.504386247782977e-05
2.101008773932386e-05
2.700749431130486e-05
3.726078349282914e-05
4.736975199706202e-05
6.141624258883462e-05
6.776551323690621e-05
8.113536090562297e-05
9.097003636189167e-05
0.0001051855198677457
0.000123496781492036
0.0001445333058869916
0.0001690029566309147
0.0001970220218960814
0.0002293570717890129
0.0002674662698022996
0.000306436428700619
9.944603358523148e-05
5.550263967488518e-05
9.786863251199179e-05
6.758401099674308e-08
7.298759947026926e-06
1.652253535062064e-05
2.837470285605785e-05
4.156947999402401e-05
5.767728867281147e-05
7.767369684597708e-05
0.0001020512739173904
0.0001338772388811552
0.0001723721122509746
0.0002186857631174408
0.000274819255396531
0.0003413641301286923
0.0004184728364972238
0.0005087216036389355
0.0006107537626435174
0.0007226852780754566
0.0005603146798898158
0.0002572350307859954
0.0005995328578986168
0.0001604466050145878
0.0002095688542126704
0.0002229293732329364
9.05689369205311e-05
2.305681323011633e-08
6.056368363448915e-06
9.128641202358183e-06
1.64728387084718e-05
2.213004506695642e-05
2.863164204322563e-05
3.773610338897509e-05
4.230521133461166e-05
6.222192608955911e-05
7.104631798644881e-05
8.90774095631288e-05
9.930907743422651e-05
0.0001102572753183985
0.0001270696356868796
0.0001481646486976639
0.0001726854415231582
0.0002008195249612132
0.0002335429063266844
0.0002708425954724084
0.000315307599263201
0.0003602573609476843
0.0001187203879810332
6.898452116464278e-05
0.0001087950606125695
7.531704147933031e-08
7.532623632511975e-06
1.687790049445412e-05
2.855933175161626e-05
4.37249488073148e-05
6.010490236222342e-05
7.964669741841995e-05
0.0001035162575742691
0.0001330409795076836
0.0001713741888829094
0.0002176001200006722
0.0002726118834544846
0.0003383835684617765
0.0004160442407246088
0.0005047506052198767
0.0006068815463242692
0.0007193593883764828
0.0008392433059276718
0.000648890707075853
0.0003055031878216087
0.0007942692595577237
0.0002018872293101353
0.0002750484860816458
0.0002584162384922422
0.0001038032495961795
2.35555153705383e-08
4.069091013649643e-06
1.06700436991223e-05
1.486675499176623e-05
2.344941652283556e-05
3.068956227487944e-05
3.90418648496289e-05
4.202237633112776e-05
6.205917539726953e-05
6.852535793088901e-05
9.511306135097706e-05
0.0001088588867282354
0.0001201765218934055
0.0001330055189074416
0.0001522108325938364
0.0001769675328312942
0.000205118530841815
0.0002380179838826778
0.0002756757821758022
0.0003191420127063233
0.0003702559078361665
0.0004226391304167952
0.0001393893070540995
8.26506182705064e-05
0.0001110383693728832
1.009872236477231e-07
7.95367952679728e-06
1.746797465856292e-05
2.908343742621382e-05
4.401435549411012e-05
6.290633103487005e-05
8.316298919984663e-05
0.0001066553263852284
0.0001348786004628705
0.0001704188637954711
0.0002162305867529249
0.0002713283365154324
0.0003357973368798585
0.0004128454375591629
0.0005018743846365927
0.0006025745924450875
0.0007153114381458107
0.0008366995494333306
0.0009605947698934985
0.0007578029100491029
0.0003636935726114066
0.001074919485428062
0.0002515860220371615
0.000360399257756948
0.000301469882697914
0.0001190561710392091
2.507606182774691e-08
4.107464635948601e-06
8.50014665947107e-06
1.634115643123029e-05
2.189729354229552e-05
3.183053846711022e-05
4.073154249345742e-05
4.535171695900448e-05
6.324885741952267e-05
6.55216504098206e-05
9.665306699958998e-05
0.0001074857830349934
0.0001318033306284097
0.0001447438970549954
0.0001591185791172412
0.0001818317409560539
0.0002099622773790522
0.0002430605135771528
0.0002808744475847577
0.0003248157319159814
0.0003749568037641651
0.0004336500771422595
0.0004938390997454044
0.0001632956551957081
9.581596488864013e-05
0.0001116151795491534
1.9644203913865e-07
8.57232864625041e-06
1.881436869192385e-05
3.018341213310573e-05
4.464594290235537e-05
6.324833809847486e-05
8.64608175830292e-05
0.0001113078564631471
0.0001393600222840426
0.0001728178509414109
0.0002152871205927413
0.0002696004722737851
0.0003344018723732981
0.0004101525112479497
0.0004984021133967337
0.0005991478779821116
0.0007109873102334082
0.000832678861123763
0.0009591732071432498
0.001081339430372658
0.000880417307615048
0.0004383699599585593
0.001177853520863928
0.0003086996708376262
0.0004473131583364791
0.0003518518630193891
0.0001365638471647341
2.66873727436067e-08
4.142517283831372e-06
8.4874195459942e-06
1.403868512527255e-05
2.318214198921649e-05
3.029127487763475e-05
4.156699124515137e-05
5.151007578262052e-05
6.487835121643085e-05
6.746588829325418e-05
9.685502811392183e-05
0.0001042992730769866
0.0001413597774260109
0.0001587198075001705
0.0001731679096315757
0.0001898726586374109
0.0002158325485078244
0.0002486396555422188
0.0002866511409207658
0.0003307464048766008
0.0003813846884554672
0.0004395521150511664
0.0004557006665375132
0.0005063244342206999
0.0001863479004676215
0.0001065118922111842
0.0001108183539803435
4.986886076264222e-07
9.153012096430879e-06
2.076528515332964e-05
3.25568494839261e-05
4.620364666005639e-05
6.430461998519633e-05
8.68214690848811e-05
0.0001151159270256983
0.0001452796154536786
0.000179147279090889
0.0002185397143991822
0.0002687132687326796
0.0003328062697159834
0.0004081926382022088
0.0004956159583638994
0.0005954769183675615
0.0007072412219079683
0.0008286569818038942
0.0009555958159458968
0.001081504247234276
0.001194242018357201
0.001022432589789968
0.0005251553093022222
0.001256766370862305
0.000370598882696077
0.0005507674905201905
0.0004073230844366998
0.0001549531783541361
2.729774978920876e-08
4.205108750594576e-06
8.553039710527588e-06
1.407105369225948e-05
2.078918837583245e-05
3.131271935018046e-05
4.007525522638521e-05
5.139553099914007e-05
6.613877962896609e-05
7.176878470056585e-05
9.853090339617107e-05
0.0001005839369824566
0.0001440273177301004
0.0001616872847242221
0.0001899506371078074
0.000206408305041121
0.00022516502790069
0.000255529403282168
0.0002930856902802491
0.000337362532085709
0.0003881148164200583
0.0004468977787665457
0.0004551748811603424
0.0004324606419789755
0.0004857508402104558
0.0002065255484260459
0.0001148447293804069
0.0001103514573254194
3.144311320365994e-07
8.146523256199142e-06
2.21518020205149e-05
3.586237960688492e-05
5.058486918439847e-05
6.682647317986302e-05
8.818484011615443e-05
0.0001155621331064283
0.0001499516767187109
0.0001866445169434903
0.0002272893147270763
0.0002733147729905216
0.0003321898317765464
0.0004064722588219661
0.0004932721817113697
0.0005925674903964792
0.0007035083555078876
0.0008248596443762272
0.0009518784288989907
0.001078869494364993
0.001196137191404649
0.001289960077332885
0.001168049277803837
0.0006278955125942627
0.001308229027024395
0.0004358963286999027
0.0006799590979903791
0.0004780228489504965
0.0001809282036276927
2.79338328655378e-08
4.193700369983493e-06
8.613817951574037e-06
1.415683356726375e-05
2.083639278366341e-05
2.907334452799417e-05
4.087962570459438e-05
4.789016421651128e-05
6.675341118162518e-05
7.475668384911236e-05
0.0001003010709014854
0.0001038140156525272
0.000144905785872398
0.000155257123507792
0.000204149531441507
0.0002262781473722952
0.0002445796003808672
0.0002664670929408094
0.0003010759911370902
0.000344770205000641
0.0003955924522350409
0.0004545076605878922
0.0005084140726574164
0.0004520934049310626
0.0004091509379683259
0.0004462207059906697
0.0002197438317914994
0.0001179367669269316
0.000108778994717572
6.941238084539912e-08
8.624097559903789e-06
1.960941320713171e-05
3.816476274689134e-05
5.58537449872331e-05
7.364480790393909e-05
9.183473445409032e-05
0.0001174734197929411
0.0001503953710298304
0.0001916566068204649
0.000236521249885045
0.0002846105954054695
0.0003379409087116909
0.0004062263744410819
0.0004914684542960351
0.0005900674476394584
0.0007005339341669111
0.0008211304518435613
0.0009482874103465942
0.001075724701316932
0.001194863117545641
0.001293796577700333
0.001357895972205779
0.001308889477709934
0.000728833271682523
0.001322233497981194
0.0004903587464306
0.000843940520556047
0.0005704506688745779
0.0001781189202998108
2.852828028668696e-08
4.179901187055151e-06
8.511274715234183e-06
1.418034028478399e-05
2.102546829685311e-05
2.866970399771974e-05
3.867690184245443e-05
4.945503631505624e-05
6.594531117638713e-05
7.502309501926767e-05
0.0001016242882558347
0.0001064373222681554
0.000146884331540904
0.0001520431568230086
0.0002081779344545612
0.0002383397012942308
0.0002679553282619466
0.0002889447963245924
0.0003138119762742991
0.0003538665253019294
0.0004040649543807082
0.0004628903008875672
0.0005307141951218781
0.0005102325520368937
0.0004490969798937462
0.0003925304371290417
0.0004046569348738933
0.0002270899512632312
0.0001256107996593491
0.0001187610295479605
2.798507328390735e-08
5.997118254334763e-06
1.834275326402524e-05
3.314470848929029e-05
5.924830371102195e-05
8.131956736721523e-05
0.0001016584615905941
0.00012215642565463
0.0001529512353175091
0.0001918596214381777
0.000241304510800429
0.0002950743219194573
0.0003516228952575748
0.000413425572186604
0.0004914848984945464
0.0005883512766731366
0.0006978106576870407
0.0008178774753520895
0.0009446068509370082
0.001072371076933043
0.001192552673188296
0.001294008955971236
0.001363546540083756
0.001390423523880286
0.001375946738625201
0.0008004887977097872
0.001276956352216954
0.000527785197365931
0.001033285483790078
0.0005478536603371629
0.0002517224415044965
0.0003209356895134385
2.902951942552726e-08
4.163546041217316e-06
8.550445047682746e-06
1.405675947018709e-05
2.106025615040133e-05
2.905644575246142e-05
3.864672269640628e-05
4.665845677779048e-05
6.607560746221399e-05
7.353480466466349e-05
0.0001017558257255973
0.0001098686963576777
0.0001486423734944926
0.0001532858850697179
0.0002096709858154896
0.0002231846651778875
0.0002877001584174735
0.0003161072783559209
0.000339556657376358
0.0003685487179750777
0.0004143216946826159
0.0004724824330711989
0.0005401202977461431
0.0005620959610778533
0.000508514230852993
0.0004452898149640652
0.0003774371271799776
0.000377169639424695
0.0002241068199240079
8.198392601334889e-05
5.236479967187999e-05
2.019494542277171e-08
4.217780682857833e-06
1.277069281449129e-05
2.900712850590689e-05
5.053010927535352e-05
8.545775383549456e-05
0.0001122915817218121
0.0001354191123654734
0.0001593409204167163
0.0001950687759591366
0.0002409955191393861
0.0002995165340430635
0.0003632555197029498
0.0004293883355675219
0.0004999343374917648
0.0005885396054324274
0.0006960159018551919
0.0008150081982028789
0.0009411654148427003
0.00106892209390469
0.001189715485600908
0.001292642078394093
0.001365091213908665
0.00139683114922389
0.00138499064507473
0.001327800274694858
0.0007911985937681259
0.001147129527252123
0.0005382959490669724
0.001090577357456809
0.001035670951479954
0.0002190231026242236
0.0003875014731559718
2.833695880576204e-08
4.143002451993249e-06
8.582426292392889e-06
1.413440935989611e-05
2.092295583375505e-05
2.927330709789743e-05
3.873761524060991e-05
4.557217421802598e-05
6.417222551598422e-05
7.482473615939816e-05
0.0001012366902393988
0.0001094072151021154
0.0001495605923503816
0.000156839554215915
0.000211817562608945
0.0002187939362420671
0.0002942304766220157
0.0003387386624864031
0.0003708649515727703
0.0003978551457304127
0.0004311215425509297
0.0004840766172322673
0.0005507910978072636
0.0006201064260317586
0.000561892138924506
0.0004952024454018181
0.000428785595304625
0.0003624279977152425
0.0003380306076976527
0.000187970866321205
0.0001190275599116411
6.273077393008391e-05
2.20286890316476e-08
4.290807910523982e-06
9.912185784850827e-06
1.889032559539125e-05
4.129563917684285e-05
7.094317723940957e-05
0.000116869301203581
0.0001492026884020571
0.0001761959299127277
0.0002035872996284537
0.0002448640978262055
0.0002988785203427739
0.0003668267054907209
0.0004416454209933831
0.0005177253930374605
0.0005974049662152678
0.0006960863424822276
0.0008126942934999559
0.0009381807042250596
0.001065382270730768
0.001186430889232772
0.00129037397020033
0.00136455125304152
0.001398959189679545
0.001391021537127094
0.001332222663507421
0.00120977563878571
0.0006867564895149765
0.0009315785845218156
0.0003710131394583972
0.001182448987187828
0.001159794389152789
0.0009711486386954531
0.0004160847250026658
0.0002635483099512954
9.452438465176731e-05
0.000388259122741635
2.831404366696361e-08
4.130696801100646e-06
8.548338123773692e-06
1.420353186626296e-05
2.098668260959091e-05
2.910710830629941e-05
3.890645234434775e-05
4.659997422942143e-05
6.432846807948756e-05
7.175867392948747e-05
0.0001008085033257454
0.0001088979033652486
0.0001494861848203384
0.0001591391738155734
0.0002132763578763978
0.0002214663641204794
0.0002961448957145114
0.0003218768196591371
0.0003968305121641173
0.0004333437028987947
0.000464156355491758
0.000503144543128649
0.0005639713107851549
0.0006405130124935427
0.0006086228215749204
0.0005394965307244019
0.0004689263093609081
0.0004118775215472498
0.0003397702980256574
0.0002992397721822609
0.0003555282940940563
0.0001590979699932461
8.809995782175092e-05
2.180728043708228e-08
5.17992873578629e-06
9.962962494893216e-06
1.278103969827486e-05
2.543423444717794e-05
5.457969014495537e-05
9.416810213303564e-05
0.0001535711135439626
0.0001930482008810717
0.0002248798065339943
0.0002553239966510098
0.0003034178680661259
0.0003654213045080541
0.000443570989190077
0.0005297787328178592
0.000615686718550256
0.0007043882657538839
0.0008119482500037443
0.0009352919594311909
0.001061949940003939
0.001182701530753915
0.001287189407351274
0.001362547055613199
0.001394804404513515
0.001386369871893043
0.001336913459825933
0.001203091554151836
0.0009959680990227829
0.0005391477928726337
0.0006198131056376691
0.000559749050707336
0.0001754090223913664
0.001237935591608316
0.001095043507672029
0.001343180515421448
0.0003224200846592134
0.0002750764068546567
0.0001311548643562869
0.0005401796082174857
3.206549677512943e-08
4.089629223807861e-06
8.487370847637926e-06
1.406783038262823e-05
2.096572321672155e-05
2.919596715168647e-05
3.866733130367011e-05
4.751783687681729e-05
6.434116766945502e-05
7.195628928575053e-05
9.943015306757981e-05
0.0001097473521828936
0.0001491007509448627
0.0001593352842199588
0.0002138659305162523
0.0002252850697776269
0.0002980983261459857
0.0003172674871540807
0.0004059210296047129
0.0004625446563503567
0.0005040150813847984
0.0005401432774472785
0.0005854893843464229
0.0006349733941259584
0.0006271714287273022
0.000566650993202547
0.0005056034981265058
0.0004406266176912342
0.0003750416829942075
0.0003228474655577037
0.0003498692708228002
0.0002513802060706945
0.0001606563631273555
0.000243048707248831
4.225498046445895e-05
2.130262923818209e-08
5.168992567448518e-06
1.048375392597186e-05
1.459567889392795e-05
2.276861419343416e-05
2.76572157964824e-05
6.893865737413479e-05
0.0001203224010262281
0.000196140008362425
0.0002440125382941393
0.0002810569307482866
0.000315372124913756
0.0003706042761331673
0.0004405977179298944
0.0005292933061767291
0.0006267143273249155
0.0007215140958341877
0.00081832557256755
0.0009324237868881952
0.001057946609188387
0.001178530154062228
0.001283147947642187
0.001359306413286508
0.001365091323626689
0.001346193295135291
0.001292162953352522
0.001197032951795775
0.0009765576891831694
0.0007617901275615972
0.0006176549410183847
0.0001365205357363614
0.0001646738404787408
0.0005156373184891245
0.001367932628382006
0.001210834103494288
0.0004523530274861472
0.001238233444270942
0.0002926008760814416
0.0005708484066532026
0.0004218121699461704
3.331148829784251e-05
0.0006834969735660562
3.869691044798339e-08
4.242651843472412e-06
8.514265782134237e-06
1.387051068234221e-05
2.084645449036516e-05
2.915943712254158e-05
3.872628754078638e-05
4.680611290233989e-05
6.433849678365293e-05
7.30202466457055e-05
9.960207984249343e-05
0.0001082714520230268
0.0001484390758786498
0.0001596555484837592
0.0002139133971379729
0.0002267748198105842
0.0002990536089651957
0.0003216240073296102
0.0004076855061743229
0.0004544850650630876
0.0005367083725680534
0.0005846682644668031
0.0006269917417633242
0.0006055007834327877
0.0005898864683576763
0.0005679234330533333
0.0005271161509445873
0.0004495698455015223
0.0003659920691833774
0.0002761712608811603
0.0003022416520459829
0.0002426720684820155
0.0002940720769367927
0.0003342718659023787
0.0001636787367071763
0.0003095663482907623
2.165699529231505e-08
5.12607425068807e-06
1.042606810928872e-05
1.676740655211782e-05
2.352685420413225e-05
2.319593323631675e-05
3.566328687572084e-05
8.385495226878459e-05
0.000148860650680826
0.0002431045126126696
0.0003012181684275931
0.00034459418561856
0.0003835187061878472
0.0004456117418942742
0.0005241914390484687
0.0006230744629528152
0.0007299899085931891
0.0008319065481056893
0.0009343708586628401
0.001051437110268639
0.001172660423057941
0.001278021090357814
0.001354739242802917
0.001342314078161499
0.001312270756983304
0.001250509353898679
0.001140874813234824
0.0009519207617650994
0.0007402803111484162
0.0004767457703420874
0.0001208234534964662
0.000264470908201646
0.0003267954036576147
0.0001212235301139473
0.0002485549789073193
0.001328459615807834
0.001118154551123534
0.0004779525376616317
0.001540147633259768
0.0002854866363571425
0.0004603916106448131
0.0005628871054086123
7.960627779799625e-05
0.0002910331397084265
3.051171451210023e-08
5.960785143928599e-06
8.948030234173309e-06
1.398415467949377e-05
2.05481470363634e-05
2.906356075936949e-05
3.871014125118811e-05
4.731053088821623e-05
6.393289320468498e-05
7.330853502381456e-05
9.965882613554044e-05