/*--------------------------------*- C++ -*----------------------------------*\
| =========                 |                                                 |
| \\      /  F ield         | OpenFOAM: The Open Source CFD Toolbox           |
|  \\    /   O peration     | Version:  v1912                                 |
|   \\  /    A nd           | Website:  www.openfoam.com                      |
|    \\/     M anipulation  |                                                 |
\*---------------------------------------------------------------------------*/
FoamFile
{
    version     2.0;
    format      ascii;
    class       volScalarField;
    location    "2000";
    object      omega;
}
// * * * * * * * * * * * * * * * * * * * * * * * * * * * * * * * * * * * * * //

dimensions      [0 0 -1 0 0 0 0];


internalField   nonuniform List<scalar> 
18230
(
49433063.41459226
76605123.70597358
55718338.55500976
16559147.91335942
21951859.12255052
86599915.26791869
40495788.60797945
13670374.60782615
8237777.80066619
23037051.18516282
51920637.43279736
49361815.29383464
45586220.56031892
16057339.99598002
6945492.783016385
5325826.095448533
27336944.43990872
18540787.30070711
37778660.30824851
30031476.36657223
22955160.21104919
54261123.2677587
8423932.505019771
4614460.908067303
3708617.331030618
23878095.3931332
22399728.64716676
8384465.12618879
26369270.74761705
20502241.28541334
41052490.02145086
35374029.13877533
33550214.80976379
5889280.103508541
3424445.069501185
2776470.272240691
24589371.21130144
17082016.67937201
9117581.734828353
5944048.073301231
18846685.82515043
15284849.35613627
44464455.77546595
11198719.14103411
25724456.51435431
22853803.98248394
4501026.45175257
2696532.225877254
2192669.135504379
25775473.8895919
15920196.43828317
8387187.092545198
8178747.648439663
4007871.58640543
14061162.81035963
12301761.92112156
40021720.38855965
12816555.58063656
5967760.290036896
17730077.74613634
16906005.20322923
3610653.445320436
2242777.263546052
1841717.482700717
25586017.76347591
15660032.68225002
8120182.453396446
7669381.602996724
4781777.157429227
2956185.126438099
10927191.50155462
10375340.54533053
42198234.0004806
11396858.5776851
7133195.8650262
4207969.697214286
12655053.17818628
13398902.18549879
3063049.099642936
1992368.134934601
1616740.746078797
25917876.56902279
15830206.94689828
8096219.570483963
7255553.58915046
4535189.620164618
3550808.407615228
2197420.664834759
8696759.755255597
9051220.713154903
44180027.58885285
11457221.35220373
6692926.261475219
4858745.269705001
3355170.719673178
9608397.714328045
11358451.91618138
2747976.291845376
1824036.556926446
1497103.036117654
26029240.36263136
16121577.60907415
7943468.751692577
7051409.432213498
4336033.880159957
3466629.909227108
2459027.999367633
1702577.528344593
7019157.524518323
8077892.80846254
43682039.61016333
11669652.25773792
6810663.918715364
4707075.652918309
3609326.218076088
2831165.54372591
7723107.035954095
10209747.62560096
2620152.648474862
1707671.880463857
1475101.199693148
25833768.18277927
15698531.37805812
7805741.326389141
6829900.070432193
4234639.433505191
3414277.072770989
2392661.18079502
1885114.972941027
1337856.856898235
5708140.646469969
7354599.339361748
42888377.93995047
11918988.26995159
6912207.505145987
4826101.777314705
3604041.890831193
2808492.024647535
2586460.811797407
6376493.190156037
9475945.838034783
2676671.295544919
1621250.350363553
1495619.759264272
25437275.10240451
15080725.58908698
7661850.305224508
6268413.076947732
4147614.61596924
3328669.933032078
2337200.318744007
1865136.285510927
1421075.598876072
1081174.486389227
4634350.411212887
6862852.338578613
44411672.14716241
12023643.32143427
7066972.877657514
4918291.530224935
3699935.02813887
2883609.016362595
2251963.738244252
2429343.815378448
5185497.813967731
8845270.499582259
3139595.408578596
1553130.772409708
1541147.088560886
26834126.31591649
13063110.40977482
7422137.226835621
6052573.896754324
3982305.263300105
3253870.794902736
2300011.20814773
1843062.468600738
1397625.738349222
1140987.936408988
894843.9906504791
3706107.093182896
6450727.983860584
43825782.80937764
12221540.61641818
7091590.154815733
5028241.505374757
3765494.98273145
2950796.137687038
2369075.741501497
1858521.968129789
1943184.73788831
3924157.126485142
8139289.749374706
3788505.984410346
1536582.91166738
1630621.928214815
29105218.22611613
11004078.46046545
6743176.916732077
5685994.158550411
3891009.022839452
3139651.353815414
2274147.927800276
1830374.81397109
1383096.939795028
1134150.670575514
927475.1311826508
756173.1124040468
2871227.871746981
6048331.512493892
43006838.54966301
12354222.8626404
7214923.47034524
5060518.079764628
3839008.200266012
3008046.550880296
2418326.692355282
1984032.990908731
1584135.668316208
1446170.291388792
2770008.524735011
7203847.967730504
4038301.876590893
1563876.667864958
1891075.46861838
28206231.25776967
11019616.82576574
5936162.366310685
5244122.93686321
3723989.118190868
3085770.078664045
2225010.619026579
1807345.871258572
1377640.247743162
1129258.349612623
921028.6579787593
777863.9008637138
653040.4396306726
2128136.620518357
5534318.271436637
45047196.04096248
12091581.07366157
7382362.961204985
5162097.676750567
3876891.681330481
3066157.243278882
2468408.95477225
2025364.578304414
1687925.172180091
1383188.252017149
1183974.724643699
1908586.244283603
6201027.543360741
4047853.715623071
1606158.452864183
2272085.853613418
30523991.53111912
9259582.334104365
5946090.365102528
4300136.680394936
3504391.109002803
2949566.611413889
2180708.880628183
1788522.46582062
1368479.061071578
1128772.635309636
918892.5386981518
777825.6986678292
655691.9097620952
564982.9158272289
1479396.313218368
4904799.013548418
45533522.59072722
12443967.45067838
7382840.498444008
5275068.117510262
3940585.105964861
3105878.519832993
2517494.139473756
2072160.412069808
1722087.494897918
1453264.172812953
1217229.958357636
1020986.642423402
1421819.441413627
5248833.075692751
3911811.781206166
1656201.211256708
2589257.756317987
32769335.63636053
9269060.417277521
5543387.23511484
4230782.763165988
3178110.099654839
2764776.151578693
2133693.151387177
1752063.133361267
1361288.279970644
1125548.603769987
920761.9497872252
777129.324463142
657200.4551921283
564076.7351379705
486014.2534217444
1019419.177874379
4248909.182106119
47506643.5001236
13148046.92875757
7517662.729385348
5305743.436911462
4033418.964625743
3153411.332804976
2554608.10467822
2113596.420200436
1763338.673389033
1483821.1434523
1262196.68921581
1076181.671032171
906697.6375677034
1139806.474249124
4409629.169401172
3707259.116858038
1708930.82553406
2771100.498814959
33319193.59330804
10771610.43720443
5796776.27699316
4063514.009279147
3129473.837494533
2608144.428161245
2066960.021259375
1729777.071279489
1352125.650238811
1124303.350422065
920235.6011710986
779761.5514732167
657654.9938169279
567853.9868102865
487258.9087141692
418548.4223967485
740214.6717348669
3626666.331919415
49181458.15140061
13343955.89851489
7805831.091298022
5437860.113546752
4079502.474134037
3233598.397986729
2594379.811698915
2146966.76821295
1797401.428418066
1518773.290856607
1290747.26328087
1108444.698300871
955212.3096580238
817462.4580476686
955842.6549072909
3683766.62002955
3491375.701104859
1745329.83869213
2829018.008405461
32159755.26378413
11008582.68179358
6404429.883556028
4322872.842208967
3134923.689336524
2509255.208559473
2000952.876421178
1699371.732621888
1349652.767468791
1123896.898494887
921056.3936825555
781871.3838500796
660877.4399780119
569087.3082007281
489058.8444316962
425798.8399757356
362981.1761357375
564433.5643239645
3053882.826320352
49293506.07347318
13990572.72471519
8024263.285479654
5609485.850334424
4161322.510416317
3279412.813820681
2651946.852020149
2181958.700280321
1826050.75520137
1550214.554138025
1319715.660509071
1134751.957721079
981216.3631048752
853183.0164539469
748282.0275812567
827133.0849449738
3047022.582670849
3279633.018751486
1748530.538415732
2751256.96163367
30686355.30071443
10828720.98139824
6514965.562385489
4728937.124798329
3374196.012880587
2569184.523613728
2012683.432340254
1668954.745852921
1344168.412356172
1126952.678724052
923668.2200953807
785710.1324964676
663825.7031156301
572383.6866394603
490758.4974664643
425999.3570272444
370708.4157866039
314916.7906538802
445267.7462209084
2533845.024460684
50497120.77094119
13665095.46460903
8261453.327137498
5768956.311274092
4302590.386222043
3334070.326025164
2693515.985764049
2229130.8273441
1858655.966601384
1574694.245381195
1346683.028270845
1159970.709918745
1004726.630950052
876805.956199097
766668.9396031211
688817.8377347309
732961.5175216836
2523511.792251507
3018741.980590051
1715875.552977019
2649628.668392296
34232158.54751124
10182591.29194588
6442204.099956258
4780765.914096582
3648724.859465194
2777578.983474461
2122755.302683495
1701067.785508915
1355374.013675821
1133327.840269838
929038.3336461938
790957.4160774449
667515.5643219362
575836.7431086842
493504.5042017162
427766.1468328251
369197.1795249909
323525.8725077456
272639.1538642101
358788.2201121463
2100419.086998491
50010898.66280701
13411367.99353163
8052107.332815937
5878088.981251242
4436729.795594941
3453932.56198629
2747453.790318008
2265761.939315091
1896726.089344105
1603379.331965737
1368283.2647169
1182333.559657636
1026169.462254373
897278.2570339387
789301.5010225392
695248.8692574493
637641.914679063
659353.7914579556
2068907.181279249
2741073.250418056
1682676.267503926
2512214.447565101
32969922.03771693
7621736.075516552
6144255.716985465
4709036.276225482
3669430.773398732
2985895.798797269
2302829.594825429
1811366.675322786
1415611.396284225
1160054.709356401
938053.4638017309
797345.425875861
673094.7382618393
579790.5996690931
496607.9279686412
430291.2472430248
371027.6042770072
321274.4092530052
281078.9245132552
236892.30792848
294270.2811455322
1724156.277105985
48952293.40551826
13610948.2600815
7950278.331127031
5719198.251276219
4469539.677302452
3568654.361579918
2838359.442057262
2308287.761907917
1927506.191810851
1634798.266457874
1391985.248385774
1201308.436270374
1044987.157642781
915821.82595844
806457.9157640787
717234.490878779
636400.2823806512
591965.6221390618
600865.3625102057
1683828.033678735
2457959.012739988
1635950.320307837
2338998.136507811
37048905.88766775
10160273.64907198
5373375.499081111
4506260.986623714
3619015.824707616
2995096.114489232
2452897.789976099
1962601.881617189
1548165.042579439
1224460.795729835
972716.9926474831
810142.9004439426
680212.0832756158
585188.5502741623
500067.3663572251
432940.9129289492
372739.4242233694
322867.7491555682
278064.2679350256
243629.6411394558
206757.8270794664
244446.1312867865
1385509.865140974
50408932.84138972
13864701.78548766
8162704.086082928
5672309.23342041
4350217.709996149
3560129.211866054
2927394.843097076
2378528.019265683
1963813.193878406
1661624.975519517
1417589.582681068
1222161.191827784
1061393.338680318
932019.2526829949
822193.3506729904
731725.271232121
656729.7137782897
588678.4864519838
553564.9731680682
552631.6247993164
1363066.187336762
2178158.175780886
1567544.956347124
2137547.386175008
32671309.05428433
7738197.964878227
6199357.531695689
4173893.213901388
3487704.571501592
2943835.667659641
2465997.02634587
2081493.921078262
1674597.84603277
1341015.509134632
1044121.087747895
845449.6950760045
693374.3823797909
592503.8661718245
504315.3691303797
436117.1216884575
374844.9192821566
324184.5084953544
279432.4777578338
240546.7822783394
210010.8838285919
180108.5984305001
204275.9733180276
1094131.472068306
53336235.66223846
14223645.61927826
8376192.988096026
5839775.693920505
4339919.546586649
3457670.122528745
2899193.433631519
2451868.30361669
2019756.70367914
1691332.323806255
1441035.116066767
1243506.365611495
1079145.577285678
946315.0431300994
836232.5025259523
745243.3557075106
668889.1268603422
607497.4656320791
550499.3985048959
522031.4838451791
514465.3628486716
1103335.104069881
1909248.297430283
1489316.408962446
1923607.55653688
33947159.68218616
10922721.98568089
5487153.569301222
4587404.674246607
3338978.466703449
2845380.051064296
2420592.152593652
2089785.5940585
1748467.000322481
1446549.97564765
1149189.502873051
909983.0375030478
726470.1333130409
605213.465845986
510863.1120574043
439714.4535939831
377160.3630524742
325788.5785273662
280296.2238693876
241618.0054727271
207191.1318568939
180309.2859496255
156066.1194240753
171690.4955394304
851665.7347751254
57886299.7069234
14495190.72517701
8565037.529665146
6000719.324275959
4478081.959670383
3469135.212483216
2818344.414003275
2416711.360017634
2075704.575368942
1736954.823057297
1467925.949687818
1263168.709769065
1097200.138729662
961204.9265949337
848591.1971184403
757421.9298801033
680690.147602367
618082.9223875109
567479.1826645125
521525.3269559885
497379.4206881068
485453.8392706149
897621.348468516
1655298.253060222
1386688.870351051
1708038.229526092
32994319.37159038
11231326.32471736
6535215.125555919
4278637.430212645
3539860.192599133
2776703.606185327
2355503.796707369
2049839.923098605
1746744.021383903
1506192.835868959
1232082.802023443
997952.8046756361
782544.2977447811
634039.962104308
521566.3401187481
445101.7756554002
380109.4081332178
327585.6267356313
281367.0123641352
242116.6920485303
207862.0841556754
177859.1840473922
154183.9366911415
134239.2933119166
144505.2069065291
653932.1889148749
64092125.95513369
14999770.493313
8652386.891860923
6121068.283370104
4613152.717777731
3590901.730052238
2853429.501692895
2353939.564523741
2039874.649104325
1780666.03743802
1504697.341542033
1286106.092538432
1113778.508940962
976227.1297311806
861144.4824976001
768351.882201816
691103.2878276268
628576.1158206867
576768.3280707094
536978.8039845431
500435.9401157738
479207.7078482199
463893.7765505341
740816.9770016919
1420118.985634575
1272576.392347575
1500110.199730319
32079377.93611981
11092984.97179231
6669918.737947334
4813929.393545821
3423537.596544196
2900281.342177773
2336191.73380691
2004485.710253918
1726349.56876112
1502956.098555205
1274095.879679906
1066657.636415245
854872.234967881
681108.4909955756
546167.1666236459
454454.8696139232
384231.1684732608
330022.2025427557
282611.4551786791
242847.4536930903
208072.5657297355
178120.6837061561
151909.5364532844
131116.7281621236
114284.9363570658
121176.7354243934
497157.5420875073
57095486.0521673
16417122.82060685
8833434.266969809
6162127.82085164
4710741.338610997
3695594.869721786
2962400.884102107
2396424.486196156
1994233.27694894
1745443.594622334
1536391.203929558
1315943.296613456
1132791.108078178
990854.07879841
873750.9622109258
779079.8788993885
700632.362670125
637606.777922239
586064.4523053294
545391.08222873
514445.5644567878
487049.3973615021
467390.0472293735
447148.3958978037
631640.0978394548
1216540.426597203
1160439.675050171
1309534.284718192
31958460.22662966
10792265.84017305
6622492.701976184
4883700.994442292
3701286.042034899
2855450.957202185
2409046.110270001
2002648.743698771
1713321.004063532
1487538.666731358
1273999.542374825
1101530.889709085
909173.4111209192
740083.322352599
584560.8374640718
474603.4916770234
391941.5111945256
333276.3161966902
284386.2001624904
243689.5340985433
208443.6736844053
178065.3194801487
151838.133129344
128911.6318892032
110381.0918265027
95808.80302206891
100542.108007135
372442.4604256419
61342865.83928989
15664138.82302155
9618920.961661851
6289043.78025189
4696622.972547301
3760041.282163822
3051716.372193313
2495050.046113275
2041481.859932491
1711884.724772822
1502960.225489608
1338793.389424422
1156702.982149984
1006829.197061053
886552.550186974
789813.9600678714
709830.9618008889
646006.6834797636
594046.979532384
553774.859653912
522295.6368695314
500075.449065496
479460.9850203103
459203.6150790329
430694.8479967539
562746.466889068
1048464.057768741
1045227.078324183
1116597.442900477
31857459.40857267
10734029.22582649
6538684.785676307
4853316.282583993
3734989.921346901
3011783.193214154
2400260.271177313
2049965.795762834
1716812.706499387
1480881.815715125
1271287.683230273
1102164.024436635
934984.1674310393
786235.493033039
632248.4172873038
505729.0398885321
407974.3173273507
339390.3902204345
286877.9206147326
244915.660709133
208902.9088340529
178152.5669708581
151555.2993640068
128569.7775633482
108106.9532918722
91320.38505971801
78742.68371559722
82466.38494208477
284334.5435507924
60919931.57042913
19123723.99553956
9552882.344588041
6833097.386440988
4783275.833336726
3726919.879108559
3099066.77006619
2570547.390700916
2131614.97186776
1762295.35835974
1481506.408697286
1310088.137850778
1173314.366834293
1026252.321976896
900249.0593752722
800803.7948675822
719098.7539987769
654034.4320714662
601478.3147086261
560983.9794590537
529922.3363232107
507725.4092833439
492129.7853513208
474113.681023349
447116.2964937956
408982.6960077684
509292.9038571955
910213.3225858799
927336.1673073189
1016225.548346103
31757509.71520855
10698875.68005712
6568245.446996133
4806972.437561924
3704528.105333493
3040233.624870884
2489453.274772832
2053386.742109608
1739066.472296756
1488218.016894696
1272672.641221149
1103382.885161326
939427.455811095
808480.2508876164
669978.6922761948
544785.8725399079
432852.3994990208
351906.4905399111
291584.398663827
246783.0930326529
209635.3898663432
178327.0209709068
151390.952078743
128167.3468655781
107473.030549074
88871.01997551355
73968.34286260069
63579.90431510466
66759.82250412175
181379.4743967821
49790880.76576047
28612948.32693586
12883351.84619133
6988731.75416177
5222728.701106676
3799114.36368868
3064834.468516451
2611514.007398363
2197334.287662162
1847788.978830764
1537216.039059059
1299990.201520316
1150859.10977728
1039077.437233042
916481.1793129065
812389.5718252312
728797.7758709576
662260.8128861892
608641.5423088806
567759.9862879944
536533.8110240028
514903.7778183843
499929.1341767109
487012.7077553556
460890.9174837384
421707.0369016145
377840.8728699832
459389.2267563958
800009.2690598097
823699.0213310197
1002174.792991657
432689.5774955416
31609569.23931248
10675752.334162
6507081.234518517
4819728.755872789
3675091.444516709
3023487.769345879
2508805.895437594
2109214.88404409
1752507.596559926
1503589.319906739
1281553.205028674
1106134.547573459
944336.7854397622
814186.4341936348
687836.7532676704
577148.432049315
463780.4821228689
371819.1036676926
301004.2465039371
250246.3364198141
210994.2781153988
178685.0470819446
151304.4875048714
127822.1112883104
106921.2373027443
87940.62959157614
71428.28578707312
59141.18649051773
51537.17128261636
50736.05873561743
99990.95875223546
42700929.72745159
24099091.60951101
17375456.8318512
10019623.70219815
5529484.532334365
4181730.495185487
3131016.908865434
2581026.383335738
2229019.166485547
1906920.68112055
1618766.318613341
1356163.744389159
1150988.656338651
1023189.030518125
926813.2922591233
826468.3246717973
739056.8008443671
670859.7385449394
616095.8946099271
574281.4980243541
542794.4112151886
521165.9860887623
506991.9273472
495577.8296087436
472993.6786832396
429475.3250199353
378368.585944324
337037.787270569
406629.3420893818
667197.0529830827
837658.6757371918
987608.5179806653
322977.1564151311
32679055.55789989
10621050.81712613
6449438.483770513
4773606.866765775
3677279.233277365
2994637.394788435
2497377.598115894
2123134.087419761
1782155.962933066
1516341.376662347
1290771.669899631
1114382.617492226
950968.8084887773
819287.2804504819
694049.9316259199
593010.7877430902
489475.0019875281
397042.2235846352
316487.448914076
257322.3795637414
213404.8543571411
179553.6768378235
151403.3985050667
127515.0295928058
106415.5327292624
87230.5646780172
70299.8271738922
56730.34180065675
47595.58435569565
42070.2380082204
41348.49766523655
72739.0566091643
42070500.81052854
16694392.88862304
12721296.43992944
13604003.83756097
8444370.218302766
4592901.470772949
3490956.977839713
2647433.652810486
2210089.656918384
1933142.388404824
1672943.894724905
1433102.857133567
1208206.629114528
1032077.968229717
917648.8777085571
836845.6902980834
751816.3976351406
680353.471848735
623935.5619507806
581186.5667076909
548912.1299960562
527103.5110484485
513158.3323103245
503206.2914781168
481846.3928762451
438524.1446991693
377591.9302636188
324644.8952926908
283972.644269126
338912.236674384
744089.9360361074
408060.9438207016
798881.1196642772
903111.6802808959
692480.7327979205
140129.9669438744
346465.8304025161
32606930.24321489
10718612.59400439
6418369.270892857
4728276.80287901
3651202.689366117
2994072.533936499
2473802.760032069
2112863.173366653
1787671.739026257
1535105.06147382
1303275.200811787
1121660.071353145
957761.1176040093
825136.5557250677
700576.4897109191
599012.0799185772
502504.0511873487
419223.3016266375
336128.5405037504
269429.4773367149
218307.3177816613
181067.913890007
151830.6325502981
127357.1894354111
105915.7878782103
86572.68107272002
69500.06214320213
55566.14015054236
45236.42677742727
36684.48696686597
34229.63431510155
33950.94662655949
41091.92925517334
41594983.61676959
14681798.74716985
9285039.129300382
9426178.415474763
11508803.36847824
7388832.80091296
4000683.13037518
2996491.025543237
2288937.282383661
1922643.832180342
1697906.867860421
1484521.083886303
1282356.215003395
1088664.957316338
935101.8588711639
835026.1207908251
763029.682841556
692772.7762487733
632951.8310834343
588640.2565209994
555483.9379782525
532997.9111073324
519033.8334137414
509949.4515870615
489801.2964424264
446090.3181835134
381885.13851854
316213.1966579233
256820.1234926776
231075.512603795
318190.1887237473
227335.6098828876
612283.9428463102
320259.8476038243
747641.1272848726
870521.3632690897
619561.6116152516
111804.6677075129
198909.204746639
30903576.05963638
10701579.53902638
6432819.692478584
4723416.673897053
3637397.858723096
2973192.217970702
2475771.845446728
2094908.90395279
1782516.45972328
1538170.161121026
1310278.427373762
1130439.62465079
963037.8696022906
830337.995694001
706638.5760134101
604580.610622553
508525.6777511703
430501.3412778038
354064.4730266553
285133.977138384
227266.254802339
184220.849208921
152582.5249019034
127345.4592765299
105467.2485921887
85916.39739842397
68793.72775893639
54782.72672446322
44001.26461303303
34854.54383492075
33349.18949705474
31483.15854785034
29237.95496833563
29740.22123986036
33187.82148586118
40808351.27585059
14293100.37544171
8740695.886038171
6799987.665967531
6987309.321270484
10249220.62026641
6719929.294304837
3574993.769871911
2640786.768905115
2014556.784578418
1699892.078083567
1511571.661417446
1331607.037114422
1161193.710524709
991633.8290435581
859522.0804829323
768403.5739249281
706184.0654826775
645858.4878999505
597621.8822583435
562798.8651899466
539413.7353775428
524884.0047624107
516370.1255557439
496781.9055810946
453124.2902775391
386828.2996948102
314854.9475420442
235348.0476235776
185468.0132688127
168791.8256844268
196507.1515527752
178729.4469059657
675632.6654466107
387354.4353246475
224460.2462748032
722082.6178789166
742993.5412398261
796216.6436067938
298934.0804441046
64516.03530769111
127645.4364271504
35282814.92534373
9904355.568718323
6347927.552070525
4748445.341982311
3625493.87040835
2962450.358956501
2459731.515501198
2098022.34288612
1772535.697538994
1532590.625535723
1312806.605497165
1133940.539104934
970358.7925162473
834495.6892449261
710634.4666090176
609420.7527889892
514274.3858797371
435873.7441114135
363717.1825580378
300441.5817875463
239145.3413402831
190536.8110056432
154054.0434329673
127371.4513625245
105038.3204612935
85256.37212295926
68083.44936010431
54111.64203499296
43149.48807218589
33355.51006977965
30466.75810992621
27095.69243069108
27079.91071437086
25875.29509352658
26134.62125031317
26649.19702133967
40832366.84542734
13932354.47615511
8486684.973088272
6516429.687438951
5120413.239592749
5689488.966779706
9008974.180851415
6232391.338630559
3306310.042545286
2381756.992712513
1811880.653491307
1528544.937021702
1362057.001494029
1211316.223228906
1063112.652502601
915265.073277544
800141.2022100943
719171.9675040158
662202.9234999057
611764.8388079978
572029.8241031384
546748.2129259286
531268.2573959946
522735.9612161503
503306.3212349103
459166.1313415983
391676.4505452022
316213.863481959
226403.7157022934
150173.0506021992
154572.4971908442
134201.9212997225
143007.5139072126
135496.3086297227
168144.2669625203
462797.4932463493
298228.6594888726
159870.7896266918
671601.1907010174
679045.9654255053
760212.8570184932
179196.6425544869
63009.42928827798
92318.28089575247
30710591.35205028
7278953.82292281
5979580.567508648
4668015.177812308
3636681.619873932
2949236.748168105
2449180.307737191
2086268.189221874
1773845.039390482
1526023.751444004
1309342.754272469
1136479.20284072
971085.6805811609
839277.7664886802
714382.2133590605
612881.0014915871
518703.0111555816
440959.7710241477
368970.5050857544
308714.885253513
251638.7290113604
199232.1913034018
157876.8170821239
127391.6773147796
104417.5367140508
84532.61221249214
67343.12200288891
53433.85954666648
42393.97362089024
32646.44031978826
29160.3135151572
27070.45680383319
25756.4793418418
25762.30934338375
25699.16790828067
24505.33348205379
25008.82642150206
24167.41357067088
26735.12287935521
40872572.65778011
13381739.19410341
8224949.572855292
6288752.658884331
5080125.196745004
4142260.57481278
4452867.095272292
8077846.812868941
5940957.906300536
3131044.952629092
2207859.769354034
1661871.930358792
1397307.4283138
1247262.117457896
1114798.406834108
986171.2668542502
856095.790994056
757291.2581468797
682525.4733739947
632173.3549047865
587735.7868901817
556384.8947372792
538653.9117877331
529586.585628403
509627.8649885301
464600.827438231
395828.4568240577
318428.1988597803
223006.054500614
142153.0246058214
108215.688166693
97198.95163062941
96003.68025639003
97026.18989931872
90090.65775916216
85189.32496955528
423717.7970384009
202465.7124057616
81774.20188991392
553055.3219158755
690999.8881723998
725695.6170239543
315764.1310121302
98890.09710111865
47865.14057873327
28921165.30139356
10049937.01438152
5162911.006973216
4409295.467133957
3586574.173216068
2950961.766013387
2439878.465836821
2076399.864412154
1767590.648494298
1526791.066669106
1306714.832877836
1133010.452532391
972454.0465743905
840397.5271080947
718557.6046527204
616178.0190767429
521939.9486275957
444822.1747086039
373548.5846415313
312649.80233601
258296.457731408
209087.4055733502
163422.4143956468
128888.1730107429
103256.6266577965
83449.30768662116
66469.17802879201
52663.35788124376
41653.44335536742
31293.33911627422
30109.29590317448
28999.6054530525
25918.01151574892
25335.62531640993
24153.69446442924
24035.75461269403
24355.49601857749
23690.07397584853
23402.49971641145
22452.99061506406
23942.76036803381
39931213.78690081
12199202.42558347
7891226.685692084
6045712.211023767
4873013.74153362
4179691.913735036
3294020.075626605
3732412.988412306
7219516.879291868
5675989.889862732
3053647.866912694
2089483.866053761
1558041.919409697
1301728.022015175
1157821.235182528
1042024.154044055
927155.1875434454
814109.1148309499
726640.0226645746
660017.4182565999
612145.8117357534
573872.9988383269
548554.6981701023
537392.2678688652
516204.4277464129
469564.4533639885
399351.5678292301
320481.7857428
222165.8608781279
132385.2210095041
112699.0728521241
110920.1305572084
79242.53733738724
71369.75807868209
74300.98013205364
67954.15050111272
69159.66601345925
54321.99995314681
240185.9072562468
140903.9171724819
56705.41357270588
448787.1992405076
651109.6663456188
696753.2661478058
200774.2895289015
77699.19082274144
46027.53551503891
29676768.94645453
9966814.982592689
6152800.924763435
4034823.902568594
3418206.784570469
2908078.300093493
2431991.646668518
2066365.94318502
1762077.78022795
1521183.643421971
1307032.850139366
1131166.668422968
971946.6709334011
841869.5666235173
719398.7983154375
619458.4124558019
524941.1489763071
447839.1824735886
376968.3196161819
315628.3925146057
261289.5576641935
213789.8125840693
170636.2744698355
131776.4610899367
102863.38279908
81510.73866580239
65147.08735616574
51705.29784579677
40863.96923328246
31165.63699231564
27935.41455736419
26279.7811979231
26187.39603619144
24715.05273469223
24227.83427760955
23526.33009108066
23276.79474132588
23549.00446309004
23015.42911400258
21773.72571073712
22564.57230290905
21800.8714799278
28698.19904174013
39772785.52105201
11975108.66024443
7443283.775757899
5784252.475062662
4650907.086670834
3973045.971599837
3391250.737128131
2756537.258218692
2941238.296354034
6224345.676879736
5571866.751666608
3019161.274818348
2030454.89376221
1492170.644479426
1235261.016206109
1094748.76251913
988566.5451619423
885740.6607068357
787189.7100613815
709926.3794290823
647048.6584558581
602393.790896284
566924.2048629577
547552.4123173339
523340.5120989319
474403.3228475848
402278.5601891346
322167.2802860801
221711.920661511
135958.4657663731
108205.0818527008
74975.05293732183
80430.75465989672
55553.20152646297
49313.22056812223
53728.40842543533
49086.37859239345
48246.78016907182
41948.68626904004
229305.1176760672
73694.97877743417
36191.01693447728
51453.25533672065
487885.3741745778
569258.2208513872
674256.3438693304
374076.984255093
101790.5898034973
71021.75699062512
55777.39331606337
29355449.03088359
10130538.60156
6113143.6732616
4550587.799167113
3239130.817550611
2790443.255600893
2388941.425153197
2055127.174551191
1752774.144434829
1516500.60089984
1301712.326556118
1132347.782227819
970230.6590769405
841738.1670789248
721636.5779286951
620972.6027117127
527574.5774972938
450581.4943235601
379743.1516730906
318035.7529092965
263660.927042458
215880.9397194093
174143.8587804624
136731.7851867672
103886.8794481004
80009.7715196209
62877.15195554067
50277.12761230358
39908.00277640019
29466.15619402694
27224.56047423297
25335.33723632724
24133.94698310832
23533.62290653404
23142.90476685878
22483.02098505623
22402.1770063637
22769.67501443079
22047.29178656439
19040.20149470359