/*--------------------------------*- C++ -*----------------------------------*\
| =========                 |                                                 |
| \\      /  F ield         | OpenFOAM: The Open Source CFD Toolbox           |
|  \\    /   O peration     | Version:  v1912                                 |
|   \\  /    A nd           | Website:  www.openfoam.com                      |
|    \\/     M anipulation  |                                                 |
\*---------------------------------------------------------------------------*/
FoamFile
{
    version     2.0;
    format      ascii;
    class       volScalarField;
    location    "2000";
    object      p;
}
// * * * * * * * * * * * * * * * * * * * * * * * * * * * * * * * * * * * * * //

dimensions      [1 -1 -2 0 0 0 0];


internalField   nonuniform List<scalar> 
18230
(
31129.85221412846
22368.30501498423
32767.96605383557
31117.34233400818
9715.538684103612
22433.72428313649
29662.19689714976
32715.75170223011
31142.65386000035
17809.1008140312
10023.06122790786
22522.66590591925
23737.87857319266
29670.76348477476
32725.60141712218
31120.85106566522
21982.25297930649
17937.98471446046
10259.44530555781
22524.18038705899
11261.38335444695
23786.59696798163
29684.42876710185
32713.84940651623
31116.66924534304
22621.09648965668
22088.2694489665
17939.04171138445
10413.88166507265
22601.03959199012
25656.71657154838
11454.49200721755
23812.43181421116
29715.4849252444
32700.05393891574
31091.24381006503
23113.45312666327
22627.91812858629
22009.94715499627
18043.22028707118
10634.73411612091
22728.54091511594
34133.02448264514
25657.54104511699
11669.39994495924
23878.68377215277
29691.9046503101
32686.98162174241
31091.57699565413
23772.0920328867
23236.88662850487
22630.12607727031
22025.00403090815
18133.22226586803
10881.86786807498
22828.62003523331
36659.12284417374
34140.6903762275
25702.31187322877
11848.28750781568
23949.11176960657
29716.35098108889
32664.47005104558
31096.41653435803
24520.81464034034
23903.53658567772
23103.41875388131
22677.5388497444
22044.81116047049
18228.97227632246
11132.50459571396
22959.49914011874
38209.60241871934
36653.5113975189
34143.23630739993
25816.71017397338
12049.20885329793
24056.07742877003
29720.37086739439
32643.24617227825
31103.91009294912
25371.34689605628
24642.49157997424
23760.91285064073
23220.04905848809
22630.17110497897
22072.85036286962
18366.92316147733
11393.51537990751
23107.49355206105
39224.52724738471
38210.40629964647
36667.15759233903
34162.63650528347
25816.45276471346
12274.17699315037
24183.07268525658
29731.75239259899
32610.85413266574
31129.655022069
26391.08337265401
25521.75764662808
24516.92235500117
23862.9415894381
23124.09543386023
22678.10052871621
22087.51391057596
18501.83504417646
11648.52525499433
23304.13124837993
39997.91064614693
39219.75615108412
38207.97599710056
36656.15732115122
34144.10002824906
25915.50744242189
12518.72154792631
24315.45657052918
29745.52953626502
32580.07522388418
31148.65462660575
27509.73124830731
26539.33129520722
25358.01622172442
24598.33175802703
23788.05059289957
23190.90192557842
22655.3832418901
22126.38826207224
18658.06420609257
11884.72603544299
23569.04607342757
40568.92183843826
39994.05072560786
39221.80251826843
38205.65841868623
36663.49981598704
34143.24265356628
25864.79736876589
12818.06598437959
24482.00753586131
29773.67565247777
32541.32190705327
31155.28872970266
29388.10049384483
27672.8889535714
26376.2737214146
25464.18738256252
24536.2507834739
23851.93969080705
23151.67775478829
22685.83498470847
22144.15268729261
18838.24428695262
12120.12323420661
23820.84693700412
40974.83900210291
40561.67988665144
39994.16302804141
39218.66386349507
38205.12574540054
36667.68719658131
34175.03649082095
25932.07260323591
13102.31707991182
24735.16809827639
29800.44522209041
32472.09120587924
31171.54244345246
33912.88178634326
29531.15412302091
27486.70046024676
26481.74108828729
25384.62195739057
24606.70710003152
23821.21673275985
23196.87646864399
22688.41162883036
22185.66133137207
19017.66977018115
12411.9393190768
24152.68801601838
41351.12080686317
40970.04502155029
40568.21412235974
39993.37441879684
39221.72596056452
38204.34257516952
36664.99575972361
34185.51893227053
26134.17205833398
13436.98994651345
25009.31234065154
29961.99592615506
32440.58833030818
31192.76965693149
40539.16655345354
33974.09000803577
29390.0893315116
27598.47728867461
26399.85122994183
25456.8282738834
24558.67513763735
23862.41851729991
23186.82923960391
22715.56590206766
22215.33288118615
19247.90408824723
12785.66523584235
24518.32549581906
41656.63601068453
41347.81722748002
40971.12522416653
40563.46106893442
39990.87281784339
39217.80776567045
38205.74910957907
36674.17307898353
34192.82050204463
26310.21629823664
13833.93352016208
25271.9548514519
30017.29274820433
32431.88906716284
31217.95798243223
49852.36211733613
40623.65397696793
33889.42398203332
29496.4933833091
27517.44728394592
26475.85413570735
25424.90000965815
24618.40427066334
23854.68060964565
23222.9760677197
22734.70977857713
22260.92502047411
19411.71139686576
13186.95522068916
25138.41373484781
41839.54814124104
41649.49868453656
41347.64403571913
40970.08881107502
40563.98168735835
39989.14147493834
39215.56424770151
38200.67018092522
36675.44400209648
34231.90545592478
26508.75641607718
14280.78642815271
25428.15632986871
30035.93127473478
32432.58553940289
31306.3977814461
55167.94544654753
49881.72468555198
40544.36470638915
33937.56693728956
29393.17714100977
27599.85722254358
26425.55947287249
25471.62328247385
24596.88174313129
23889.28711211436
23233.48274510566
22766.1483053564
22304.57248724416
19636.98449909025
13603.40062651172
25847.38289454095
41477.23225538249
41835.64170447176
41655.56600309694
41349.8498323167
40971.17698270406
40562.95562856014
39989.52331284487
39217.01427124315
38204.794354006
36682.63548998275
34269.34937983959
26741.61239845329
14784.50614613115
25763.97961406511
30139.48197931093
32515.32700354507
31511.18314808741
57671.98930313817
55181.04603128319
49845.51628324438
40542.27324184185
33959.34908041033
29485.507525141
27536.57013222379
26481.3374065463
25453.84336905786
24647.34250161812
23906.48706899083
23276.86911505278
22799.17048511773
22362.8954160565
19950.49372555391
14033.29288561987
26571.82310685463
40686.40407885959
41477.06777146019
41824.28395291251
41652.42491895161
41345.3404886753
40969.11678459193
40559.84048896403
39986.58004952723
39213.36121588016
38205.35796258169
36688.20685306843
34308.428232897
26972.09732035597
15329.49754445305
26108.24790305713
30311.08306672175
32646.55487910963
31826.45123118883
59512.82450037736
57665.2550832527
55167.453193956
49866.70020401409
40567.2243432152
33951.05554220198
29427.66724740414
27604.85503426877
26462.59086193707
25498.93003395617
24648.10248462853
23946.22304891618
23299.81958147587
22840.05380718219
22419.25648524334
20274.01963128945
14496.48810011535
27252.81257451776
41012.55193126377
40661.48695453942
41474.66828741801
41838.79860329807
41654.04833549912
41346.48906988003
40969.31795550507
40559.90229231674
39986.76597720584
39212.89039152481
38204.90423430347
36701.70863487585
34368.15069037744
27265.71692102575
15926.42549293219
26489.64753533214
30574.92665160039
32784.77245362504
32270.4527141105
61210.36276138839
59512.43909554533
57672.51320214411
55167.82753715204
49858.09245754784
40544.86739511999
33951.42052910526
29502.6857551948
27567.23465094056
26504.87677314897
25502.3976402464
24700.39871063983
23979.33947419487
23357.01056854881
22899.01714338661
22493.26908403824
20621.43059148053
15001.88722004938
27877.52212455829
41865.78593244933
41050.20520189196
40708.7810452062
41473.96423564895
41817.88299211187
41653.04877712519
41345.74261860165
40967.70947851198
40555.7974895703
39983.20352247932
39213.09136420536
38206.72728687978
36710.2495894931
34424.79687761491
27554.71175304095
16577.85222256299
26902.88841026452
30995.48648945717
32927.28716044446
32856.00275841268
62716.1239777016
61210.5480554832
59512.15863328685
57670.7242218209
55158.27913190166
49867.85729826962
40616.33409024119
33975.06073904288
29457.40340848932
27627.66564343564
26504.1846072334
25553.53227610573
24720.61763617912
24032.06892437191
23397.07091910058
22945.71059594402
22567.00778275846
20961.91187639323
15552.45994605266
28447.06627429127
43150.37505247134
41877.83493926445
41007.25661408772
40662.46325134213
41478.83255463337
41837.23913135981
41651.27926916523
41344.5667439765
40967.20056416656
40555.96682715687
39981.14286997909
39212.11401254494
38210.25023600155
36730.49996032163
34498.94101778106
27878.70446622223
17268.50435913579
27317.86501070958
31552.47905441853
33302.0580834218
33587.38932485899
64172.57447894647
62712.94533786173
61209.05137458774
59516.30108699561
57674.90909893617
55173.64743350984
49858.68908416782
40574.97342918681
34003.19907199842
29534.30171099959
27610.5169538904
26550.39375683676
25573.92288435118
24784.72146225625
24085.47092430469
23466.61052385544
23016.33951836989
22657.61640798335
21320.07520098281
16126.54634084685
29006.84690802149
42728.76198257862
43143.66983102281
41862.985679662
41034.71645828932
40693.41386510622
41475.45612591884
41823.91075186947
41651.2334214481
41343.21464940379
40966.27048294718
40552.92636276713
39980.35495816456
39211.58011717554
38214.84827760187
36748.35466916185
34583.75234096449
28233.7839483752
17998.6237767096
27790.93323509871
32330.72400920671
33786.95352835181
34481.82421330782
65510.25589498668
64179.47954433567
62715.20202657143
61205.27093874423
59508.33476893717
57666.40287116911
55166.44045778558
49880.32103860952
40611.89112037565
34003.82782430769
29510.21010308618
27669.88385717022
26562.0073906632
25636.43598505277
24823.04120036575
24150.0112667913
23538.27434022848
23093.3155708233
22758.39962481581
21651.58017960521
16721.46144635243
29594.03966694401
41592.49834932155
42710.08710852808
43149.77593422592
41864.72258560694
41007.41635996087
40666.58618461839
41473.7181473914
41834.5852546433
41650.29427453403
41341.84889060421
40964.41455686045
40550.63738204288
39976.88106725299
39211.90773871796
38221.67248253949
36777.35076199404
34679.8747074799
28637.42488103455
18760.03429212393
28320.13722375819
33243.90614908785
34391.22736112192
35536.0602040192
66727.65045019641
65498.64830905911
64168.43014491395
62715.05533335374
61209.21299629223
59514.70323528834
57665.78060140723
55167.36893959903
49857.14807763985
40623.01355383443
34038.5262149093
29587.80840930558
27672.59853270437
26618.20601908268
25675.87858714745
24897.32708961608
24221.96359059084
23633.50853609475
23187.73365677008
22871.78755092553
21955.29463646673
17321.75673697205
30297.9692562333
40458.11045938264
41600.95006689097
42742.41541427611
43144.2053643418
41868.80083004745
41031.06094861258
40690.96097650028
41476.19556689303
41830.74649819157
41649.50207534399
41341.09157888978
40963.74282749822
40548.23534539749
39976.23451693872
39212.7318873253
38231.17066008321
36809.74082955829
34789.28320019053
29052.51198262878
19543.63110363057
28952.19255648934
34298.73010832656
35098.66846614861
36815.90789029653
67914.5474730757
66719.49084276718
65509.72396277729
64170.01892264878
62717.60640053949
61208.36757334018
59510.84576008123
57669.4476617176
55166.59910875943
49890.39713421236
40639.58622627197
34066.8401394497
29579.87397482566
27738.4244937132
26647.733652173
25741.64529980077
24967.94408992055
24317.96511817811
23746.45382927257
23305.01179561574
22992.9248963639
22237.29878074369
17923.9034479045
31137.54462361383
41697.66916979403
40459.09871171255
41588.23459581645
42732.27543289754
43146.18773503571
41865.26889569667
41012.12166645799
40678.44521335253
41470.15469532037
41831.40999980328
41647.72356901711
41339.49472676227
40961.96848364396
40545.7300434939
39973.36353781975
39215.96198948012
38243.9023275853
36852.79766727443
34913.18856820118
29508.79188493756
20325.65653409581
29711.81683227876
35515.81567040047
35913.19493531079
38195.10692664625
69039.42605892693
67909.41479175596
66731.36835139715
65510.10883906468
64170.8612995727
62714.17714587869
61210.38612622255
59510.6545024876
57671.92071230913
55163.95747944129
49883.19816085634
40661.26792310167
34105.12439276812
29671.8747444376
27763.08439137889
26705.49878206348
25806.95584235622
25061.93375517848
24429.9594189805
23887.12685107561
23441.38879512174
23133.41563990135
22501.35606017686
18510.12848726154
32014.25296625775
43024.61810574006
41747.61516763035
40459.1898282932
41592.95078093903
42731.8890575363
43141.42905595226
41863.26440127437
41030.33476631023
40689.75309164092
41473.72756947821
41829.37190446851
41646.79580150758
41337.9204735036
40961.48058201373
40543.24677300185
39973.23446348355
39220.77042597869
38263.86871899981
36906.3929072496
35052.51222884012
29987.80461329375
21116.1582703368
30518.05044993855
36829.74807462293
36823.57736481816
39521.25144148301
70013.01979404673
69038.95790286214
67915.13551966169
66724.72034585482
65508.84127538673
64170.63953490397
62712.17977317144
61205.442973559
59509.97109132788
57665.57669255784
55166.66515325458
49899.93672825673
40696.10908832966
34142.17048442395
29678.78473505454
27824.98857163554
26759.20213102198
25894.96941601277
25171.03155561663
24568.09218888786
24050.64245366737
23614.46315297034
23290.21372004287
22751.50759215396
19069.66263632406
32934.22472627014
44126.81533343538
43024.23712668562
41733.76646733418
40456.75333828694
41595.59797337376
42733.81530129211
43144.08230124646
41866.61831427595
41011.75162650096
40688.7504271096
41471.82569046733
41827.40885608424
41645.2781311764
41335.9646623603
40959.5650052305
40540.86516283139
39972.82335772477
39229.0800262747
38289.60936364876
36975.17939978575
35208.48649683151
30495.72492630471
21919.84634811623
31375.15522733318
38064.54031334032
37818.61713161939
40715.9589762969
71069.0579703308
70013.98782618779
69037.67064712646
67913.19955374002
66726.57375504337
65504.57805656491
64170.08604031243
62715.04193570157
61206.42833317668
59509.25602439683
57669.71406025124
55165.05290590799
49905.95926608973
40735.93578356855
34204.07171414358
29775.73753188522
27879.90107206976
26835.13062555708
25996.58440731399
25304.64091159097
24727.47637206468
24252.82275661696
23820.10839176982
23479.48734037214
22993.66615717969
19592.86818415144
33870.99703543279
39640.88150049033
44119.54715771807
43021.47134106594
41721.02117940982
40460.25332646681
41591.18965968166
42731.34997973412
43137.90510767711
41866.07147015977
41028.8536559419
40689.67774393076
41471.31230889889
41824.90390982454
41643.08527777506
41334.38822766615
40958.86190350708
40538.95299440955
39975.17319419211
39241.21466529021
38326.36459448389
37059.14468195941
35386.16138085944
31007.90752118046
22779.18247252209
32270.25683214056
39346.48914573224
38854.78705971847
41770.85860188388
71952.51253117323
71068.2283480225
70013.03180200618
69042.61497258044
67912.98998683869
66729.18139579242
65509.37937818846
64169.66819995265
62712.41079745498
61209.38972805779
59506.92999141557
57667.53863006594
55169.94034507661
49917.66398833304
40775.69239970941
34256.69544417456
29826.52052479434
27960.13958883068
26925.10761846917
26120.43076465253
25457.85849757485
24923.50619393911
24486.49524900414
24069.17122249033
23707.74333799497
23241.09722632118
20083.55111018494
35014.61604106852
31923.9642983163
39656.38706698921
44119.64949630239
43020.46343300756
41734.58159385341
40453.76471788736
41593.41732752949
42733.86200603459
43140.46651463239
41866.08460512236
41014.07988281094
40690.46904249152
41469.69089973153
41821.79761074444
41641.57686674334
41332.43240940058
40957.92232769737
40537.92133104074
39979.16952867616
39261.19095018708
38375.09572893327
37167.1955845289
35584.63500892088
31564.26591422799
23614.65205771163
33209.74800804248
40206.00953566646
39862.21954448176
41992.475919374
72899.16745634057
71951.94732383592
71064.89478963982
70007.77629363777
69037.77898468685
67914.79493795814
66724.43903644673
65506.76262865447
64169.91217635063
62709.7863402771
61205.11749823705
59507.64687317465
57663.92288610691
55168.74725294463
49934.60398148041
40829.15263090642
34334.26985439648
29924.56704137707
28055.54109885549
27037.0058705872
26261.45953175171
25645.0718575981
25149.32710882832
24760.25810209815
24363.72977812757
23976.45900730368
23502.83352659006
20553.74013623333
35947.23340000164
25000.40111927756
31959.63640097466
39641.20989865696
44118.65229110964
43016.49339363078
41721.9270856593
40461.43020999758
41591.48536863536
42731.44065871154
43132.5349128272
41866.94637368209
41020.79944057381
40691.25675654288
41468.56835565995
41818.21351328365
41639.1784596604
41330.79206132342
40957.8680248977
40538.2388836769
39988.04089787927
39288.93603713275
38442.28179827772
37296.65907152869
35814.82050620767
32145.20343069277
24504.3985831004
34170.1522655954
41214.86170366249
40936.32798280807
41163.59056799988
73704.1113185029
72898.87973107322
71951.85671163429
71071.09534524371
70013.50548620838
69032.29058769178
67910.26961346627
66724.74386087546
65506.34342493596
64167.88231691891
62710.69740304585
61204.13640670072
59507.72471328995
57664.35498785588
55167.67551854747
49957.87203699337
40895.78831356818
34424.67501985248
30034.42621092512
28175.51829228264
27166.99874735971
26433.65905589374
25858.70889516395
25414.48199788851
25074.05103322627
24707.62349596529
24282.08642425841
23812.25582534757
21043.24519295741
37143.53114414644
25792.06298466122
25006.25166186717
31916.29520901625
39640.94063752823
44116.57107224045
43017.59774112982
41729.69888990756
40454.112777397
41589.41559871819
42730.19288611319
43134.03702234304
41866.80622386923
41016.89924402501
40692.44291670186
41466.44295428253
41813.93931491432
41637.03477605114
41329.24659014473
40958.8035970726
40541.56804807764
40002.27126159438
39331.22667682286
38528.84831624709
37460.01067628188
36078.58753711936
32748.94764711557
25379.5248825007
35149.76088151256
41294.2362734516
40526.38211689109
42380.61345330006
41553.56659320868
74552.85138442041
73691.11848646366
72900.68467004507
71951.55279243324
71065.62168968579
70010.81489832843
69038.30110464762
67912.93335045125
66723.66288579798
65505.16885252267
64166.79343016788
62708.95459749601
61201.72617198874
59504.94789803425
57663.39799327957
55169.87171098947
49974.9308738478
40969.30980488381
34529.36204369486
30173.98656335028
28315.77235738991
27330.35415001222
26630.52378652908
26109.24159818435
25722.09586054572
25422.29110456691
25089.30378149551
24642.68659574716
24152.80979562687
21259.58685745603
28619.40814581125
27971.04950919134
25751.37487807419
25007.18552349103
31902.67784186859
39640.57306866074
44114.21094102566
43019.38273577282
41726.65440538317
40462.30054287463
41590.62113918526
42728.65301016314
43125.34972903022
41869.04062495044
41006.56364138893
40693.64252932253
41464.54274005298
41808.85040075074
41634.76782494917
41328.08355692321
40961.70283049027
40547.87009718626
40026.47283704613
39387.29460631267
38644.96613820386
37658.36047518779
36385.76159315957
33377.85943030299
26217.19593319848
36236.06580901524
40054.72602255813
41167.51467879808
41856.37676732938
41008.26492495203
75309.52768165858
74534.44381520097
73705.54990268861
72897.89428550572
71952.56054770258
71069.50393946875
70010.69692644654
69033.68684091832
67908.59112023174
66721.36678359962
65503.8374039332
64165.5526038965
62708.20409321985
61201.25747243777
59504.14210073042
57660.55826119214
55170.44170308534
50005.78504036883
41063.90310933979
34660.46756908339
30335.60765666708
28493.10573205675
27521.66223354415
26864.51302954828
26401.32082912346
26065.57267069704
25805.05737991418
25506.26951474413
25036.12012964495
24516.51131899677
22933.57442584602
28094.09217867708
29953.00380496303
27988.79256103477
25804.13922262219
25008.19932697213
31965.88007053489
39634.69554389636
44112.07217596674
43013.43268433239
41729.02142692699
40461.72666812793
41590.66974085935
42719.74912830858
43124.22038734643
41869.03390739028
41020.82860397243
40695.24359783252
41461.96065262002
41803.10395210588
41632.59326340479
41328.29075058945
40966.61728119637
40561.74095257826
40060.1959320795
39467.7867987428
38792.54209658809
37901.49207791848
36740.99028924571
34019.50842326034
27359.33895287102
34967.39116027433
41052.90691045845
39956.05511218411
41957.52103030177
43261.75679293596
40852.4242124328
37356.19904328532
41768.42382219268
76066.79419764946
75265.7308688325
74555.20433882307
73702.48863981479
72895.96329455222
71950.42379733872
71066.2582344589
70009.72930062759
69036.78156769683
67911.06217801599
66723.5177397673
65502.85742301784
64163.66320151091
62706.93085357045
61198.73606076476
59501.8391384358
57659.99175995906
55172.00565723144
50039.32174835588
41174.28433730298
34811.70554622139
30539.27035098686
28702.09223974627
27755.62115272758
27142.44000248927
26732.12179901726
26458.43940192491
26222.48108749982
25941.84041454624
25504.70464926023
25010.65780774849
23670.09795500692
25259.45219946311
31229.03519212381
29955.72493946299
27960.81440020595
25776.73758438786
25006.59512899846
31909.9889900558
39640.88585719382
44108.64687425139
43017.46088078241
41731.44578754532
40463.033402902
41589.45838070282
42729.22410618604
43111.09901256017
41871.12586697335
40992.86591208881
40696.93677642351
41458.6828243071
41796.15869817297
41631.02726463623
41329.41720052718
40976.82470268606
40581.30683198528
40113.37030451681
39575.73129026862
38981.01440309516
38195.32708000112
37138.78847517353
34725.99673904315
28048.83562616003
37710.50086189779
29079.58125508896
41425.98585263916
40626.22616304042
42579.96588061395
43040.52844743318
42104.52352802666
38940.49219327085
41724.7599792769
76792.65647305406
76007.02209757968
75316.47947588318
74547.51033506988
73702.97090299027
72897.37081567495
71948.59676690614
71065.98453094409
70008.65765126147
69033.75521226299
67905.86711054633
66719.11588114321
65501.78836456191
64162.64205375544
62704.83678092371
61198.18855839306
59500.44069538284
57655.41420874562
55173.19096065488
50079.70814282884
41306.14346731908
35001.7386410503
30778.65767783891
28958.27150113066
28038.75121908123
27464.659289144
27131.44850796678
26883.180975554
26663.55347581456
26358.02830593347
25432.41546755036
26221.35251809816
25069.49359409753
23448.42609567003
24904.75610831051
32480.03332894596
31227.21360391205
29950.2205418991
28026.50136009771
25809.36108326662
25007.92745785617
31941.3564386013
39636.80091254873
44107.56433446131
43011.04848346571
41736.99173727549
40463.58171705483
41588.02673810838
42715.3438745419
43107.83431227172
41872.77135284829
41024.81458752256
40698.89849480381
41455.02474956489
41788.4635848543
41629.7870607209
41334.48000879909
40990.89395904633
40615.79066972769
40189.28336895947
39719.35030971047
39215.86428518916
38537.15612367647
37608.3534937171
35264.88551044358
30564.8511764197
33862.41115149132
28395.18469823368
42617.50325139229
41276.06612253603
39549.07831296864
42821.88936355432
43416.47205757023
43306.47902056088
41768.4557930585
33947.60058599484
41124.18491700977
77508.5896257069
76759.20798020235
76076.50136875968
75306.38047457059
74553.68516592412
73704.0983601257
72897.97316930334
71949.37531219493
71064.87613975316
70007.97002723734
69034.85099832315
67908.67599655963
66718.84592469165
65499.1109154984
64159.77402405781
62701.12667323156
61194.07604951927
59497.68484606186
57654.11129923066
55173.92986006519
50128.57837086259
41467.56999624521
35222.78954312515
31070.67980933397
29268.13002062237
28373.882459833
27871.43761458969
27569.51515237489
27358.43848045416
27074.8281737533
26919.64343961378
25961.46711172279
26733.21615759824
25501.32541915288
24080.22635888163
24282.25946945088
33774.70180588291
32481.83324799198
31229.40201182998
29953.74938382033
27958.16582184213
25793.59151523595
25009.00257776596
31927.65568396409
39646.78109606276
44103.20061561195
43012.27566913227
41739.31009735108
40464.68607485918
41587.85862986478
42713.21543659934
43106.03426632803
41875.64884276683
41022.24005029148
40700.93219530625
41450.87413431995
41779.01508305329
41631.1703508933
41341.42795534937
41015.67036337636
40666.88687997473
40292.44884012239
39903.36504195056
39493.74051462889
38936.55203726437
37895.3058262929
35082.57047513947
36794.70311028197
30003.46539763549
28533.19458855358
35360.55330973275
42162.25717505324
42075.03203477005
40421.26044930477
42001.72516590333
43243.89835492671
42864.76091847033
42134.02376672067
38066.42737790529
41900.48315618609
78157.88392676732
77511.64079980424
76797.24417086998
76062.65210049544
75307.60069319053
74548.42455728416
73700.43811868518
72895.54945420379
71948.16642237391
71063.73144810766
70006.00290254346
69029.60612350043
67904.37878276159
66716.31714990945
65496.72179042782
64156.8162329554
62699.27394976675
61191.63223340665
59494.71385595034
57649.79688916422
55176.13174166884
50182.70670023961
41653.70521125492
35488.38855322797
31421.11790076935
29636.14089674439
28797.11884283676
28323.58100683611
28100.64132369928
27823.61109729513
27652.36326115281
27276.59603913197
25899.08027459701
26650.72596749661
27241.2132767136
25669.10899194673
23794.98075148319
25448.24010989287
24173.36058832721
35123.56277215343
33772.52171789118
32479.67488682427
31228.85212593877
29950.79300631332
28028.46917105445
25806.731556787
25009.6829221636
31928.66410092176
39632.13355663126
44105.12263149591
43008.52989686768
41747.61420967203
40465.66439352728
41585.3694295438
42709.10212892856
43096.10543028481
41879.27722816823
41028.67711396022
40703.51218023172
41445.04762064558
41768.80666248608
41632.94017183524
41356.68571481641
41052.77665518934
40737.23810883075
40428.2717820391
40121.96244155577
39811.8264650971
39229.69463947354
38711.1330086191
36245.29641105738
37071.63401637532
30999.36746884844
29585.48247967836
32466.18527908617
42764.09520398319
41532.85578710865
36771.42534416854
42295.0935503902
42610.60751725751
43409.08878595006
42827.17442861675
41871.06369235325
33862.16634908241
78814.48954444457
78124.94716336719
77506.20220315672
76789.98913407639
76066.68250491317
75310.09022457225
74551.79810937698
73702.54048677739
72895.31392506947
71948.80077779315
71062.74994199918
70006.94286868293
69030.76328562178
67902.82787740506
66714.06056815886
65493.67972492837
64153.65158346916
62694.36600263276
61186.83156677689
59490.31911209464
57645.83128999368
55180.51857331025
50254.05553824085
41877.88712825342
35805.74616612804
31832.9812092246
30096.45420318068
29288.9341351195
28941.19136576927
28626.14527054285
27836.66642561231
28473.07314758503
27963.45132124934
27894.00244146447
26340.25519898471
27040.32658336379
27593.64362492758
26161.80518284146
24435.83307407933
25992.75838136891
24173.18333313707
36429.27946324676
35120.92330174295
33775.17505593433
32480.01986316468
31229.14549043634
29957.29044811837
27963.50419040347
25800.38225784294
25010.1672808497
31925.35012792734
39630.32005654498
44100.83225326907
43008.23297855327
41753.21453222947
40467.38291120595
41584.79260550972
42704.31449206507
43128.43561141012
41882.8178291471
41031.18766522442
40706.27022532723
41439.12400260595
41757.09786913831
41640.02827825596
41380.77572308747
41103.35770406704
40833.29796284201
40593.90104322848
40377.11546398888
40108.78264282022
39218.79825759098
39917.88759279577
38823.999901903
36563.53456206009
38031.31897395192
34492.60480565619
29915.40201512015
29906.7059612304
42556.22564552295
41977.71562005756
35731.07997443406
41438.92489943372
42704.14109276627
43000.58892496982
42795.685843757
41379.12433090161
34135.27286730467
79445.33403395426
78777.39180170208
78162.49804191917
77508.16208166137
76793.58873199146
76062.69057735594
75307.30664801688
74549.71468865837
73699.42724570986
72893.93596169981
71945.98987465605
71061.1733864733
70003.37768923596
69026.93905615587
67900.35558424106
66711.1574277387
65490.69672934426
64149.30659988298
62690.35368775412
61181.78797309657
59485.63765508458
57639.37498603471
55182.31074649084
50333.67668686734
42142.28837274221
36169.93729977149
32334.35347666281
30638.09023732619
29962.80650417116
29341.46339979483
29194.47117894952
28292.71281088767
28675.9502662017
28336.66627537177
27956.40142879719
26905.77305103284
27572.65937936637
27745.39809025912
26522.48737429474
25838.16737316297
24223.10119682772
26496.98867386986
27488.38036557259
37903.28387238424
36433.7149849476
35128.5120389085
33769.64438502761
32479.93388086823
31227.84473918579
29949.29984325882
27986.10464898673
25807.00434932075
25008.3507160156
31927.50196762371
39639.49950990342
44103.4313966333
43005.39183607959
41757.97368020887
40468.84533937825
41582.57437169953
42699.96953847073
43123.02369373426
41887.727839142
41036.73823287753
40709.33336633974
41430.89975442211
41745.9063821796
41649.24409647055
41414.87075265172
41173.40061141174
40953.61541274959
40788.8617732323
40548.87317145174
40444.18024754839
39745.36808349661
40101.53809221592
39413.92899125394
37727.91371489186
38356.10503011746
35529.45848349437
33298.46819877226
31560.5592324391
42074.82892552111
41866.39937467669
32687.30502134392
37659.20851979331
43731.3936475996
43478.01882424357
43781.77414622166
42646.97312051897
42571.87575119051
42145.98474515601
38927.11245151063
80076.42806499262
79392.3411207272
78819.85801469418
78157.91815512869
77507.29974209868
76790.73297332518
76065.84707434851
75306.89516543894
74549.9360400372
73700.28512487719
72893.78338799669
71944.92070391546
71059.43190855101
70001.58489273598
69025.45866625085
67896.79868655036
66707.75364307052
65485.64967064223
64144.43860434741
62684.21927194333
61175.23296620406
59479.6521994365
57633.16641920214
55186.84706679257
50428.26000687366
42446.86995914549
36628.93968590795
32906.22195164952
31358.64361515846
30401.1164391551
30041.98835001424
29657.90230219991
29379.38478439827
28848.66487824002
28352.66596978415
27277.23286553866
27860.34889533495
28196.37602752632
27117.02160653393
26428.47824997255