/*--------------------------------*- C++ -*----------------------------------*\
| =========                 |                                                 |
| \\      /  F ield         | OpenFOAM: The Open Source CFD Toolbox           |
|  \\    /   O peration     | Version:  v1912                                 |
|   \\  /    A nd           | Website:  www.openfoam.com                      |
|    \\/     M anipulation  |                                                 |
\*---------------------------------------------------------------------------*/
FoamFile
{
    version     2.0;
    format      ascii;
    class       volScalarField;
    location    "2000";
    object      rDeltaTau;
}
// * * * * * * * * * * * * * * * * * * * * * * * * * * * * * * * * * * * * * //

dimensions      [0 0 -1 0 0 0 0];


internalField   nonuniform List<scalar> 
18230
(
3156.449464970545
3146.569966770188
3226.654120968488
3094.55829899073
3084.872516441361
3084.872516441361
3233.866485246986
3163.386393106361
3033.88068528503
3024.38482004055
3024.38482004055
3024.38482004055
3214.035803834213
3170.457338477437
3101.359208927805
2974.392828710813
2937.87749955499
2965.083156902499
2965.083156902499
2965.083156902499
3192.602307114035
3151.015493955111
3108.291508311213
3040.548244046867
2916.071400696876
2880.272058387245
2880.272058387245
2906.944271473038
2906.944271473038
2906.944271473038
3130.002261876505
3130.002261876505
3089.230876426579
3047.344615991385
2980.92965102634
2858.893530094976
2823.796135673769
2823.796135673769
2823.796135673769
2849.945364189253
2849.945364189253
2849.945364189253
3068.629668506378
3068.629668506378
3068.629668506378
3028.657721986843
2987.592760775868
2922.480050025824
2802.836794210761
2802.664716459538
2768.427583993891
2768.427583993891
2768.427583993891
2794.064082538483
2794.064082538483
2794.064082538483
3074.540980359281
3008.460459319978
3008.460459319978
3008.460459319978
2969.272276457689
2929.012510564576
2865.176519633161
2747.87921001055
2858.718010788729
2747.71050633288
2714.144690190089
2714.144690190089
2714.144690190089
2739.278512292631
2739.278512292631
2739.278512292631
3136.031799966466
3014.255863097334
2949.471038548998
2949.471038548998
2949.471038548998
2911.051251429107
2871.580892710369
2808.996587875648
2693.999225500539
2934.182434706015
2802.664716459538
2693.833829738118
2660.926166853029
2660.926166853029
2660.926166853029
2685.567168914344
2685.567168914344
2685.567168914344
3198.752435965795
3074.540980359281
2955.15280695817
2891.638273087253
2891.638273087253
2891.638273087253
2853.971815126575
2815.275385010165
2753.918223407498
2641.175711275038
2992.866083400135
2876.649445790211
2747.71050633288
2641.013558566782
2608.751143973558
2608.751143973558
2608.751143973558
2632.908989131709
2632.908989131709
2632.908989131709
3203.610821714668
3136.031799966466
3014.255863097334
2897.208634272716
2834.939483418875
2834.939483418875
2834.939483418875
2798.011583457427
2760.073906872711
2699.919826870096
2589.38795223043
3052.723405068138
2934.182434706015
2820.244554696285
2693.833829738118
2589.228978987042
2557.59916075839
2557.59916075839
2557.59916075839
2581.283322678146
2581.283322678146
2581.283322678146
3140.794923249674
3140.794923249674
3074.540980359281
2955.15280695817
2840.400621835996
2779.352434724387
2779.352434724387
2779.352434724387
2743.148611232771
2705.954810659521
2646.980222421662
2538.615639441598
3113.777873169501
2992.866083400135
2876.649445790211
2764.945641859103
2641.013558566782
2538.459783320629
2507.450157606264
2507.450157606264
2507.450157606264
2530.669924194261
2530.669924194261
2530.669924194261
3159.679753437709
3079.210709068308
3079.210709068308
3014.255863097334
2897.208634272716
2784.706491996075
2724.855328161164
2724.855328161164
2724.855328161164
2689.36138356154
2652.896873195608
2595.078649433002
2488.838862197645
3176.053430632891
3052.723405068138
2934.182434706015
2820.244554696285
2710.731021430493
2589.228978987042
2488.686062079048
2458.284468241436
2458.284468241436
2458.284468241436
2481.048945288491
2481.048945288491
2481.048945288491
3157.951965957915
3097.725248468342
3018.834028498341
3018.834028498341
2955.15280695817
2840.400621835996
2730.10440391772
2671.426792314866
2671.426792314866
2671.426792314866
2636.628807413274
2600.879287446675
2544.194754346081
2440.038100193769
3239.574499245549
3113.777873169501
2992.866083400135
2876.649445790211
2764.945641859103
2657.579432774993
2538.459783320629
2439.888296155929
2410.082812001408
2410.082812001408
2410.082812001408
2432.400926753423
2432.400926753423
2432.400926753423
3096.031339174427
3096.031339174427
3036.985537714061
2959.641204410138
2959.641204410138
2897.208634272716
2784.706491996075
2676.572945017373
2619.045874818496
2619.045874818496
2619.045874818496
2584.930203346347
2549.881654359485
2494.308582692236
2392.194215876244
3214.304422644984
3176.053430632891
3052.723405068138
2934.182434706015
2820.244554696285
2710.731021430493
2605.470032132346
2488.686062079048
2392.04734917248
2362.82628627589
2362.82628627589
2362.82628627589
2384.706790934728
2384.706790934728
2384.706790934728
3151.553070408109
3035.324842327869
3035.324842327869
2977.436801680452
2901.609023931508
2901.609023931508
2840.400621835996
2730.10440391772
2624.091122566052
2567.692034135781
2567.692034135781
2567.692034135781
2534.24529739838
2499.88397486224
2445.400571266898
2345.288446937494
3278.590511097884
3151.278845730377
3113.777873169501
2992.866083400135
2876.649445790211
2764.945641859103
2657.579432774993
2554.382384443476
2439.888296155929
2345.144459973019
2316.49635909401
2316.49635909401
2316.49635909401
2337.947834249734
2337.947834249734
2337.947834249734
3142.746536886386
3089.757912164813
2975.808668948891
2975.808668948891
2919.055687922012
2844.714729344615
2844.714729344615
2784.706491996075
2676.572945017373
2572.638355456914
2517.345131505667
2517.345131505667
2517.345131505667
2484.554213135666
2450.866642021804
2397.451540457743
2299.302398958328
3344.162321319841
3214.304422644984
3089.489064441546
3052.723405068138
2934.182434706015
2820.244554696285
2710.731021430493
2605.470032132346
2504.296455336741
2392.04734917248
2299.161235267666
2271.074861856872
2271.074861856872
2271.074861856872
2292.10571985268
2292.10571985268
2292.10571985268
3217.069138189051
3081.124055770967
3029.174423690993
2917.459479361658
2917.459479361658
2861.819301884325
2788.936009161387
2788.936009161387
2730.10440391772
2624.091122566052
2522.194466134229
2467.985423044772
2467.985423044772
2467.985423044772
2435.837463858496
2402.81043335471
2350.442686723277
2254.218038194439
3357.921274339796
3278.590511097884
3151.278845730377
3028.910847491712
2992.866083400135
2876.649445790211
2764.945641859103
2657.579432774993
2554.382384443476
2455.192603271315
2345.144459973019
2254.07964241928
2226.54398221262
2226.54398221262
2226.54398221262
2247.162470443804
2247.162470443804
2247.162470443804
3281.410520952832
3153.989351165736
3020.709858598987
2969.778846755875
2860.254391531038
2860.254391531038
2805.705197925809
2734.250989373909
2734.250989373909
2676.572945017373
2572.638355456914
2472.739672680617
2419.593552004678
2419.593552004678
2419.593552004678
2388.07594495931
2355.696503288931
2304.3555752189
2210.017684504352
3292.07968072529
3292.07968072529
3214.304422644984
3089.489064441546
2969.520438717364
2934.182434706015
2820.244554696285
2710.731021430493
2605.470032132346
2504.296455336741
2407.051571834622
2299.161235267666
2209.882002371844
2182.886257071196
2182.886257071196
2182.886257071196
2203.100461219416
2203.100461219416
2203.100461219416
3291.5564940975
3217.069138189051
3092.146422711506
2961.480253528418
2911.547888976348
2804.170972089252
2804.170972089252
2750.691370515498
2680.638224876381
2680.638224876381
2624.091122566052
2522.194466134229
2424.254581059428
2372.150541181057
2372.150541181057
2372.150541181057
2341.250926430696
2309.506375773462
2259.172132567548
2166.684004416031
3227.529098750284
3227.529098750284
3227.529098750284
3151.278845730377
3028.910847491712
2911.294547762122
2876.649445790211
2764.945641859103
2657.579432774993
2554.382384443476
2455.192603271315
2359.854482190806
2254.07964241928
2166.550982717494
2140.084565756074
2140.084565756074
2140.084565756074
2159.902412960211
2159.902412960211
2159.902412960211
3303.27424207232
3227.016170683823
3153.989351165736
3031.516100697555
2903.412013263155
2854.458714682694
2749.187227538483
2749.187227538483
2696.75624560343
2628.076691055276
2628.076691055276
2572.638355456914
2472.739672680617
2376.720177509244
2325.637785471625
2325.637785471625
2325.637785471625
2295.34404552029
2264.221937032806
2214.874639772107
2124.200004329442
3239.224547574987
3164.244214461063
3164.244214461063
3164.244214461063
3089.489064441546
2969.520438717364
2854.210340943257
2820.244554696285
2710.731021430493
2605.470032132346
2504.296455336741
2407.051571834622
2313.582825677261
2209.882002371844
2124.069590899504
2098.122123290269
2098.122123290269
2098.122123290269
2117.551385255109
2117.551385255109
2117.551385255109
3213.328199001959
3238.504158894431
3163.74134380767
3092.146422711506
2972.074608527014
2846.48236594427
2798.488935963426
2695.281595625963
2695.281595625963
2643.878672160225
2576.545775544388
2576.545775544388
2522.194466134229
2424.254581059428
2330.117821087494
2280.037044580024
2280.037044580024
2280.037044580024
2250.337299529696
2219.825428463535
2171.445725266771
2082.549023852394
3304.009038526487
3175.710340759791
3102.200210255944
3102.200210255944
3102.200210255944
3028.910847491712
2911.294547762122
2798.24543229731
2764.945641859103
2657.579432774993
2554.382384443476
2455.192603271315
2359.854482190806
2268.218456546334
2166.550982717494
2082.421167548533
2056.982473813989
2056.982473813989
2056.982473813989
2076.03076985795
2076.03076985795
2076.03076985795
3150.321763727411
3150.321763727411
3175.004077347481
3101.707199811441
3031.516100697555
2913.798635810798
2790.668986219872
2743.616603885711
2642.432936888199
2642.432936888199
2592.037913882573
2526.025270141557
2526.025270141557
2472.739672680617
2376.720177509244
2284.429236360288
2235.330435862769
2235.330435862769
2235.330435862769
2206.213038754604
2176.299439670132
2128.868358104678
2041.714729267053
3312.368720678643
3239.224547574987
3113.441510548815
3041.372755152886
3041.372755152886
3041.372755152886
2969.520438717364
2854.210340943257
2743.377874801285
2710.731021430493
2605.470032132346
2504.296455336741
2407.051571834622
2313.582825677261
2223.743584849347
2124.069590899504
2041.589379949542
2016.649484131362
2016.649484131362
2016.649484131362
2035.324284174461
2035.324284174461
2035.324284174461
3139.039625821477
3088.550748752363
3088.550748752363
3112.749095438707
3040.889411579844
2972.074608527014
2856.665329226273
2735.94998649007
2689.820199887952
2590.62052636098
2590.62052636098
2541.213641061346
2476.495362883879
2476.495362883879
2424.254581059428
2330.117821087494
2239.636506235577
2191.50042731644
2191.50042731644
2191.50042731644
2162.953959563337
2133.626901637385
2087.125841279096
2001.681107124562
3359.86863858995
3247.420314390826
3175.710340759791
3052.393637792955
2981.737995247928
2981.737995247928
2981.737995247928
2911.294547762122
2798.24543229731
2689.586151765965
2657.579432774993
2554.382384443476
2455.192603271315
2359.854482190806
2268.218456546334
2180.140769460144
2082.421167548533
2001.558215636806
1977.107337383688
1977.107337383688
1977.107337383688
1995.415964876922
1995.415964876922
1995.415964876922
3201.820418337907
3077.489829236742
3027.990930149376
3027.990930149376
3051.714799449713
2981.264128999847
2913.798635810798
2800.652283555169
2682.303908323599
2637.07862734113
2539.82404545194
2539.82404545194
2491.385922609163
2427.936630278313
2427.936630278313
2376.720177509244
2284.429236360288
2195.72206493684
2148.529830702392
2148.529830702392
2148.529830702392
2120.543097611115
2091.791080036652
2046.201805175584
1962.432457965257
3427.066011361749
3293.988861362695
3183.745406265516
3113.441510548815
2992.542782149956
2923.272544360713
2923.272544360713
2923.272544360713
2854.210340943257
2743.377874801285
2636.849168398006
2605.470032132346
2504.296455336741
2407.051571834622
2313.582825677261
2223.743584849347
2137.392911235436
2041.589379949542
1962.311976114515
1938.340526846753
1938.340526846753
1938.340526846753
1956.290161644041
1956.290161644041
1956.290161644041
3265.856826704665
3139.039625821477
3017.14689140857
2968.618558969976
2968.618558969976
2991.877254362463
2922.807969607693
2856.665329226273
2745.737532897224
2629.709714042744
2585.371203275617
2490.023573972491
2490.023573972491
2442.535218244277
2380.330029684621
2380.330029684621
2330.117821087494
2239.636506235577
2152.668691114549
2106.401794806267
2106.401794806267
2106.401794806267
2078.963821187368
2050.775568663384
2006.080201152533
1923.953390162016
3331.69552082833
3359.86863858995
3229.400844473231
3121.319025750505
3052.393637792955
2933.865472696035
2865.953474863444
2865.953474863444
2865.953474863444
2798.24543229731
2689.586151765965
2585.146243527456
2554.382384443476
2455.192603271315
2359.854482190806
2268.218456546334
2180.140769460144
2095.483246309251
2001.558215636806
1923.835270700505
1900.333849849758
1900.333849849758
1900.333849849758
1917.93153102357
1917.93153102357
1917.93153102357
3331.173963238758
3201.820418337907
3077.489829236742
2957.987148439775
2910.410351931349
2910.410351931349
2933.212994473003
2865.498009419307
2800.652283555169
2691.899542056102
2578.146778473278
2534.677650270213
2441.199582325971
2441.199582325971
2394.642370827723
2333.656891847667
2333.656891847667
2284.429236360288
2195.72206493684
2110.459501092695
2065.099798829674
2065.099798829674
2065.099798829674
2038.199824693497
2010.564283003318
1966.745295247582
1886.22881388433
3239.307183134796
3266.368157674834
3293.988861362695
3166.079259287481
3060.11669191226
2992.542782149956
2876.338698721603
2809.758308689651
2809.758308689651
2809.758308689651
2743.377874801285
2636.849168398006
2534.457101497506
2504.296455336741
2407.051571834622
2313.582825677261
2223.743584849347
2137.392911235436
2054.395339518873
1962.311976114515
1886.113010490691
1863.072401813488
1863.072401813488
1863.072401813488
1880.325030415265
1880.325030415265
1880.325030415265
3265.856826704665
3265.856826704665
3139.039625821477
3017.14689140857
2899.987400431152
2853.343482285637
2853.343482285637
2875.699014189219
2809.311773940497
2745.737532897224
2639.117198094218
2527.594880856155
2484.978088500209
2393.332923848991
2393.332923848991
2347.688598850708
2287.898913576144
2287.898913576144
2239.636506235577
2152.668691114549
2069.07794224774
2024.607645911445
2024.607645911445
2024.607645911445
1998.235122248527
1971.141453924821
1928.181662007433
1849.243935180715
3244.138468029564
3175.791356014506
3202.321723210621
3229.400844473231
3103.999273811256
3000.114403835549
2933.865472696035
2819.939900707454
2754.665008519266
2754.665008519266
2754.665008519266
2689.586151765965
2585.146243527456
2484.761864213241
2455.192603271315
2359.854482190806
2268.218456546334
2180.140769460144
2095.483246309251
2014.11307795968
1923.835270700505
1849.130402441854
1826.541570405381
1826.541570405381
1826.541570405381
1843.455912171828
1843.455912171828
1843.455912171828
3201.820418337907
3201.820418337907
3201.820418337907
3077.489829236742
2957.987148439775
2843.124902383482
2797.395570868271
2797.395570868271
2819.312759009038
2754.227229353428
2691.899542056102
2587.369802053155
2478.034196917799
2436.253027941381
2346.404827302933
2346.404827302933
2301.655489069322
2243.038150564847
2243.038150564847
2195.72206493684
2110.459501092695
2028.507786517393
1984.909456775926
1984.909456775926
1984.909456775926
1959.054041420124
1932.491621494923
1890.37417843866
1812.984250177172
3249.238812576477
3180.527909832906
3113.520937269123
3139.531101186883
3166.079259287481
3043.136542952211
2941.288631211323
2876.338698721603
2764.646961477896
2700.651969136535
2700.651969136535
2700.651969136535
2636.849168398006
2534.457101497506
2436.041043346315
2407.051571834622
2313.582825677261
2223.743584849347
2137.392911235436
2054.395339518873
1974.620664666353
1886.113010490691
1812.872943570445
1790.727029809197
1790.727029809197
1790.727029809197
1807.309717815518
1807.309717815518
1807.309717815518
3139.039625821477
3139.039625821477
3139.039625821477
3139.039625821477
3017.14689140857
2899.987400431152
2787.377355277923
2742.544677321835
2742.544677321835
2764.032116675528
2700.22277387591
2639.117198094218
2536.637060836426
2429.445291095881
2388.483360726844
2300.396889512679
2300.396889512679
2256.524989283649
2199.057010357693
2199.057010357693
2152.668691114549
2069.07794224774
1988.733124036659
1945.98966350581
1945.98966350581
1945.98966350581
1920.641217078553
1894.599628916591
1853.308018077117
1777.435539389384
3254.221434752465
3185.528247623997
3118.164617483241
3052.471507126591
3077.971667830278
3103.999273811256
2983.467198972756
2883.61630510914
2819.939900707454
2710.438197527349
2647.698008957387
2647.698008957387
2647.698008957387
2585.146243527456
2484.761864213241
2388.275532692465
2359.854482190806
2268.218456546334
2180.140769460144
2095.483246309251
2014.11307795968
1935.902612417993
1849.130402441854
1777.326415265142
1755.614735107056
1755.614735107056
1755.614735107056
1771.872272368154
1771.872272368154
1771.872272368154
3072.977454861654
3077.489829236742
3077.489829236742
3077.489829236742
3077.489829236742
2957.987148439775
2843.124902383482
2732.722897331298
2688.769291491994
2688.769291491994
2709.835408505419
2647.277229290108
2587.369802053155
2486.899079251398
2381.80910891753
2341.650353653768
2255.291068149686
2255.291068149686
2212.279401258479
2155.938245448719
2155.938245448719
2110.459501092695
2028.507786517393
1949.738356898686
1907.833003437069
1907.833003437069
1907.833003437069
1882.98158537113
1857.450616584893
1816.968645173645
1781.341808993769
1742.583862146455
3329.098967789253
3190.413171325946
3123.066909435292
3057.024134787491
2992.619124633913
3017.619282186547
3043.136542952211
2924.967842130153
2827.074808930529
2764.646961477896
2657.292350517009
2595.782361722929
2595.782361722929
2595.782361722929
2534.457101497506
2436.041043346315
2341.446600678888
2313.582825677261
2223.743584849347
2137.392911235436
2054.395339518873
1974.620664666353
1897.943737664699
1812.872943570445
1742.476877710924
1721.190916771623
1721.190916771623
1721.190916771623
1737.129678792308
1737.129678792308
1737.129678792308
3079.399750203839
3012.722994962406
3017.14689140857
3017.14689140857
3017.14689140857
3017.14689140857
2899.987400431152
2787.377355277923
2679.140095422841
2636.048324992151
2636.048324992151
2656.701380887665
2595.369832637361
2536.637060836426
2438.136352207253
2335.106969526991
2295.735640837028
2211.069674656555
2211.069674656555
2168.901373782823
2113.664946518352
2113.664946518352
2069.07794224774
1988.733124036659
1911.508193037927
1870.424513173597
1870.424513173597
1870.424513173597
1846.060377814834
1821.030016259699
1781.341808993769
1746.413538229185
1708.415551123976
3395.680947145038
3263.822517440444
3127.856050319555
3061.830303367933
2997.082485085776
2933.940318268542
2958.450276653477
2983.467198972756
2867.61553150015
2771.641969539734
2710.438197527349
2605.188578938244
2544.884668355812
2544.884668355812
2544.884668355812
2484.761864213241
2388.275532692465
2295.535883018517
2268.218456546334
2180.140769460144
2095.483246309251
2014.11307795968
1935.902612417993
1860.729154573234
1777.326415265142
1708.310664422474
1687.442075266297
1687.442075266297
1687.442075266297
1703.068312541478
1703.068312541478
1703.068312541478
3025.254777156818
3019.01936294494
2953.649995061182
2957.987148439775
2957.987148439775
2957.987148439775
2957.987148439775
2843.124902383482
2732.722897331298
2626.607936689059
2584.361102933482
2584.361102933482
2604.609196948692
2544.480228075844
2486.899079251398
2390.329757065934
2289.320558359795
2250.72121650689
2167.715367310348
2167.715367310348
2126.373895865513
2072.220535802306
2072.220535802306
2028.507786517393
1949.738356898686
1874.027640233262
1833.749522719212
1833.749522719212
1833.749522719212
1809.863115504739
1785.323545352646
1785.323545352646
1746.413538229185
1712.170135518809
1712.170135518809
1674.91720698429
1674.91720698429
3423.116210269228
3329.098967789253
3199.825997490631
3066.525539528976
3001.794415066601
2938.3161618488
2876.412076733865
2900.441447699488
2924.967842130153
2811.387775980539
2717.296048568367
2657.292350517009
2554.106449939455
2494.984968976286
2494.984968976286
2494.984968976286
2436.041043346315
2341.446600678888
2250.52537550835
2223.743584849347
2137.392911235436
2054.395339518873
1974.620664666353
1897.943737664699
1824.244269189445
1742.476877710924
1674.814376884778
1654.354975751271
1654.354975751271
1654.354975751271
1669.674816217136
1669.674816217136
1669.674816217136
3039.884416281051
2965.936056036096
2959.822904847981
2895.735289275668
2899.987400431152
2899.987400431152
2899.987400431152
2899.987400431152
2787.377355277923
2679.140095422841
2575.105820283391
2533.687355817139
2533.687355817139
2553.53842838107
2494.588458897886
2438.136352207253
2343.460546143073
2244.431919960583
2206.589427947931
2125.211144421909
2125.211144421909
2084.680290064228
2031.588760590496
2031.588760590496
1988.733124036659
1911.508193037927
1837.282000228688
1797.793649724718
1797.793649724718
1797.793649724718
1774.375603436019
1774.375603436019
1750.317201326123
1750.317201326123
1712.170135518809
1678.598172077264
1678.598172077264
1642.075693121853
1642.075693121853
3355.996284577674
3355.996284577674
3263.822517440444
3137.084311265325
3006.397587773505
2942.935701045687
2880.702119459608
2820.011839935162
2843.570046764203
2867.61553150015
2756.262525471116
2664.015733890556
2605.188578938244
2504.025931313191
2446.06369507479
2446.06369507479
2446.06369507479
2388.275532692465
2295.535883018517
2206.397426968971
2180.140769460144
2095.483246309251
2014.11307795968
1935.902612417993
1860.729154573234
1788.474773715142
1708.310664422474
1641.974879298802
1621.916642893403
1621.916642893403
1621.916642893403
1621.916642893403
1636.936094330525
1636.936094330525
1636.936094330525
3054.987090259042
2980.278839491226
2907.780447094212
2901.787161615667
2838.956165956537
2843.124902383482
2843.124902383482
2843.124902383482
2843.124902383482
2732.722897331298
2626.607936689059
2524.613549297443
2484.00721158543
2484.00721158543
2503.469047432422
2445.67495970381
2390.329757065934
2297.510339355954
2200.423450941748
2163.322968576403
2083.540337668539
2083.540337668539
2043.804205945321
1991.753686853427
1991.753686853427
1949.738356898686
1874.027640233262
1801.256862969302
1762.542793847763
1762.542793847763
1762.542793847763
1739.583924937273
1739.583924937273
1715.997256202082
1715.997256202082
1715.997256202082
1678.598172077264
1645.68448242869
1645.68448242869
1645.68448242869
1609.87813051162
1609.87813051162
3298.78844664126
3290.192435860465
3290.192435860465
3199.825997490631
3075.572854181691
2947.448615464221
2885.231079456556
2824.217764176086
2764.717490132512
2787.813771337454
2811.387775980539
2702.218162226584
2611.780131265251
2554.106449939455
2454.927383640383
2398.101661838029
2398.101661838029
2398.101661838029
2341.446600678888
2250.52537550835
2163.13473232252
2137.392911235436
2054.395339518873
1974.620664666353
1897.943737664699
1824.244269189445
1753.406640897198
1674.814376884778
1609.779293430198
1590.114355777846
1590.114355777846
1590.114355777846
1590.114355777846
1604.839308167181
1604.839308167181
1604.839308167181
3070.116381395442
2995.085382606904
2921.841999501202
2850.765144210012
2844.889374133007
2783.290358780919
2787.377355277923
2787.377355277923
2787.377355277923
2787.377355277923
2679.140095422841
2575.105820283391
2475.11132284063
2435.301187828853
2435.301187828853
2454.381419051394
2397.720548729225
2343.460546143073
2252.461117015641
2157.277893080145
2120.904871153336
2042.686605557391
2042.686605557391
2003.729613671884
1952.699692993556
1952.699692993556
1911.508193037927
1837.282000228688
1765.938100950296
1727.983131223297
1727.983131223297
1727.983131223297
1727.983131223297
1705.474436213013
1705.474436213013
1682.350251178512
1682.350251178512
1682.350251178512
1645.68448242869
1613.416159243814
1613.416159243814
1613.416159243814
1578.311892658451
1578.311892658451
3300.294879155573
3234.106320236529
3225.678858686731
3225.678858686731
3137.084311265325
3015.267504099697
2889.655505357079
2828.657921035839
2768.840945270672
2710.507343267168
2733.15075621319
2756.262525471116
2649.233492379004
2560.568756142403
2504.025931313191
2406.791552588611
2351.080060625519
2351.080060625519
2351.080060625519
2295.535883018517
2206.397426968971
2120.720325806392
2095.483246309251
2014.11307795968
1935.902612417993
1860.729154573234
1788.474773715142
1719.026118526665
1641.974879298802
1578.214993559018
1558.935642919457
1558.935642919457
1558.935642919457
1558.935642919457
1558.935642919457
1573.371870752139
1573.371870752139
1573.371870752139
1573.371870752139
3037.561151831466
3009.918020975924
2936.358218242063
2864.550979903139
2794.867788441188
2789.107229542164
2728.716038020509
2732.722897331298
2732.722897331298
2732.722897331298
2732.722897331298
2626.607936689059
2524.613549297443
2426.579728275128
2387.550184145935
2387.550184145935
2406.25629318764
2350.70642032277
2297.510339355954
2208.295212760432
2114.978326549162
2079.318501130722
2002.63392701705
2002.63392701705
1964.440797717533
1914.411463719173
1914.411463719173
1874.027640233262
1801.256862969302
1731.311863676761
1694.101109042448
1694.101109042448
1694.101109042448
1694.101109042448
1672.03376099315
1672.03376099315
1649.362991351482
1649.362991351482
1649.362991351482
1613.416159243814
1613.416159243814
1581.780548278249
1581.780548278249
1581.780548278249
1547.364600645541
3235.583214858405
3235.583214858405
3170.692470820127
3162.430253614442
3162.430253614442
3075.572854181691
2956.144611862448
2832.995593487332
2773.194040231215
2714.549946343796
2657.360140458008
2679.559564914892
2702.218162226584
2597.287737626475
2510.361525629807
2454.927383640383
2359.599561361383
2304.980451593646
2304.980451593646
2304.980451593646
2250.52537550835
2163.13473232252
2079.137574319992
2054.395339518873
1974.620664666353
1897.943737664699
1824.244269189445
1753.406640897198
1685.31972404575
1609.779293430198
1547.269601528449
1578.214993559018
1528.368277372017
1528.368277372017
1528.368277372017
1528.368277372017
1528.368277372017
1542.521441913861
1542.521441913861
1542.521441913861
1542.521441913861
2971.497425097143
2978.001129246536
2950.900020564631
2878.782566903983
2808.383313630528
2740.066459256067
2734.418852492317
2675.211801980891
2679.140095422841
2679.140095422841
2679.140095422841
2679.140095422841
2575.105820283391
2475.11132284063
2378.999733603066
2340.735474652877
2340.735474652877
2359.074797242785
2304.614137571343
2252.461117015641
2164.995306627874
2073.508163283492
2038.547550128159
1963.366595114755
1963.366595114755
1925.922350703464
1876.873984038404
1876.873984038404
1837.282000228688
1765.938100950296
1697.364572232118
1731.311863676761
1660.883440237694
1660.883440237694
1660.883440237694
1660.883440237694
1639.248785287401
1639.248785287401
1617.022540540669
1617.022540540669
1617.022540540669
1581.780548278249
1581.780548278249
1550.765243410048
1550.765243410048
1550.765243410048
1517.024118279942
3198.789648767868
3172.140406723926
3172.140406723926
3108.52203021581
3100.421817269061
3100.421817269061
3015.267504099697
2898.180992022008
2777.446660281698
2718.817686501191
2661.323476807644
2605.255039664713
2627.01918128911
2649.233492379004
2546.360527084779
2461.138750617457
2406.791552588611
2313.332903295473
2259.784756464358
2259.784756464358
2259.784756464358
2206.397426968971
2120.720325806392
2038.370170901953
2014.11307795968
1935.902612417993
1860.729154573234
1788.474773715142
1719.026118526665
1652.274239260539
1619.876705157392
1516.930981890636
1547.269601528449
1498.40027193335
1498.40027193335
1498.40027193335
1498.40027193335
1498.40027193335
1512.275923444962
1512.275923444962
1512.275923444962
1512.275923444962
1512.275923444962
3024.024334547416
2913.232769703081
2919.608950241702
2893.039235847677
2822.335849905866
2753.316974147577
2686.339665937321
2680.802796561095
2622.756668608717
2626.607936689059
2626.607936689059
2626.607936689059
2626.607936689059
2524.613549297443
2426.579728275128
2332.352680003006
2294.838700640075
2294.838700640075
2312.818428669397
2259.425625069944
2208.295212760432
2122.544418262622
2032.851140474012
1998.57602953741
1924.869210896818
1924.869210896818
1888.159167356337
1840.072533370985
1840.072533370985
1801.256862969302
1765.938100950296
1664.082913953057
1697.364572232118
1628.317098272249
1628.317098272249
1628.317098272249
1628.317098272249
1607.10665224255
1607.10665224255
1585.316216216342
1585.316216216342
1585.316216216342
1585.316216216342
1550.765243410048
1550.765243410048
1550.765243410048
1520.358081774557
1520.358081774557
1520.358081774557
1520.358081774557
3201.791344630973
3136.068283105752
3109.941575219535
3109.941575219535
3047.570617858637
3039.629232616726
3039.629232616726
2956.144611862448
2841.353913747067
2722.986921844802
2665.507535785481
2609.140663536905
2554.171607514425
2575.509001263833
2597.287737626475
2496.431889298803
2412.881128056331
2359.599561361383
2267.973434603405
2215.475251435646
2215.475251435646
2215.475251435646
2163.13473232252
2079.137574319992
1998.402128335248
1974.620664666353
1897.943737664699
1824.244269189445
1753.406640897198
1685.31972404575
1652.274239260539
1588.114416820972
1516.930981890636
1469.019874444461
1469.019874444461
1469.019874444461
1469.019874444461