/*--------------------------------*- C++ -*----------------------------------*\
| =========                 |                                                 |
| \\      /  F ield         | OpenFOAM: The Open Source CFD Toolbox           |
|  \\    /   O peration     | Version:  v1912                                 |
|   \\  /    A nd           | Website:  www.openfoam.com                      |
|    \\/     M anipulation  |                                                 |
\*---------------------------------------------------------------------------*/
FoamFile
{
    version     2.0;
    format      ascii;
    class       volScalarField;
    location    "2000";
    object      rho;
}
// * * * * * * * * * * * * * * * * * * * * * * * * * * * * * * * * * * * * * //

dimensions      [1 -3 0 0 0 0 0];


internalField   nonuniform List<scalar> 
18230
(
0.4383801038797219
0.3247449730570165
0.4539085825995307
0.4316986510256294
0.1561888120620331
0.3169051006135393
0.4321806142167803
0.4486661890065983
0.4301426305176764
0.3621569854573998
0.1641959319377561
0.3144709830661999
0.3515091928356732
0.4244315590869926
0.4471510582297312
0.4286875433305723
0.4041092796065451
0.3655617818282146
0.1688385388783784
0.3125780470887775
0.1763394075970729
0.3411509007696282
0.4221670938747559
0.4458544915345173
0.4275830387961259
0.4127539021216596
0.4083406850130686
0.3653758002065873
0.1715843688442742
0.3115842416442968
0.4553824623640507
0.1845530851653656
0.3350370464077413
0.4208830742817539
0.4445308705770314
0.4263007472651114
0.4196196919009453
0.4152839932894893
0.4068362583282009
0.3668435487990388
0.1763494221991742
0.3113417823068396
0.5275690536788791
0.4567353541978957
0.19239233780821
0.3324483503592374
0.4190552644974325
0.4431783800953555
0.4254041622657186
0.4282881438616686
0.423631308164221
0.4148756769005928
0.4070874027896349
0.367765854786147
0.1819478942515411
0.3107151854411676
0.5549277658695184
0.5269297208214939
0.4561404616315348
0.1980289255923392
0.331498530934222
0.417924882528638
0.4416191014119761
0.4246415931629202
0.4381157509279509
0.4322654012441486
0.4209091100951213
0.4157602837037529
0.4070207083257412
0.3688070826297507
0.1879019073827957
0.3105898860852495
0.5724208047011763
0.5542517715971038
0.5267204139838008
0.4567679828150718
0.2046688959815021
0.3326890794421535
0.4166021426115551
0.4401940063619612
0.4239574324020234
0.449168534320996
0.4417369736262775
0.4294566901802089
0.4229381407766212
0.4145817715251348
0.4073004761301198
0.3703432558177277
0.1945544587722522
0.3105461017604431
0.5831362728726351
0.571183759345114
0.5539995779488511
0.5265238326281907
0.4559488394743691
0.2114052244096187
0.3344097264289687
0.4154833872330588
0.438824644218973
0.4235678705699138
0.4622294976938747
0.4530535218769617
0.4391827101435116
0.4311692136141031
0.4209864227792944
0.4152830533311112
0.4072442545836144
0.3718947060417533
0.2016909571046588
0.3112414514331796
0.5913769751641831
0.5818614116754186
0.5707072592471919
0.5535685867496221
0.5261618922628009
0.4558770977288253
0.2192361065767754
0.3361908478233727
0.4145151260662805
0.4377297278712467
0.4230629787871584
0.4764638213948333
0.4659062203865335
0.449921094763809
0.440616063590012
0.4296290819933876
0.4220130529030897
0.4146067902940566
0.4076205843203169
0.3737473349595466
0.2095425818245771
0.3131810211731368
0.5973659099322071
0.5900932487719566
0.5814260564307576
0.5703198982980996
0.5533516294762367
0.5258939665033147
0.4530173104536728
0.2293512024129477
0.3390826706179366
0.4137848682709545
0.4367582720081771
0.422213686645487
0.5002116622214055
0.480159410392379
0.4628046759274417
0.451711030045243
0.4392558122927999
0.4305786073325412
0.4210773971266036
0.414947366181684
0.4076278783653884
0.3761666898760612
0.2187748034836212
0.3165742760225104
0.6015751956087568
0.5960163071091177
0.5896038305737776
0.5810318764770257
0.5699912019366258
0.5531027098775207
0.5258900268090565
0.4479511976068231
0.2396392755783096
0.343789790081023
0.4130705371444326
0.4355709226912435
0.4213877286181575
0.5553741359320888
0.5031308764952985
0.4767469868557828
0.4645540071630921
0.4500616195409587
0.4403122094244508
0.4297683499096651
0.4216557965777127
0.4146998910661859
0.4080298198476044
0.3783646959531912
0.2306639041901365
0.3230099889260532
0.6056169310875639
0.6002303933203219
0.5955850127788113
0.5892204682983041
0.5807330319391593
0.5696671973567201
0.5527908292865732
0.5257150355039762
0.4438974917900885
0.25015310451273
0.3496438584528868
0.4144534094445729
0.4349331676582165
0.420620761334517
0.630873198281904
0.5563241530855949
0.500436358401589
0.4785463234621021
0.4628888412765974
0.4511396696888741
0.4392305709405768
0.4302798335831869
0.4211882057934235
0.4149410579652359
0.4082209657044867
0.3800974928382626
0.2441305995364661
0.3306150834596211
0.6088933611149946
0.6042721415382893
0.5997519271588384
0.5951570005525513
0.588850604346201
0.5803738207958412
0.5693682162138981
0.5525995058973713
0.5255886128577935
0.4421688161864433
0.2604940927362634
0.3558788141983258
0.4144442232667042
0.4345692680299205
0.4197239961052786
0.7312910412090479
0.6322875469772742
0.5548100271555219
0.5021054807085029
0.4769039760450508
0.4640332718966658
0.4502791969768776
0.4400179915449945
0.4298365687434834
0.4215820081193153
0.4149717091905125
0.4086617954762873
0.3802135195042854
0.2566696159247085
0.3425902610774931
0.6111013463246354
0.6074498524601061
0.6037541737354013
0.5993598779637478
0.5948171410067755
0.5885039431972191
0.5800344304609422
0.5690094083911252
0.5523178845560993
0.5257273913317425
0.442253789839706
0.27027559366054
0.3611247917521379
0.4136183042335846
0.4342749111554061
0.4189147878777211
0.7881440045793631
0.731651948436478
0.6307399735670428
0.5552920772874144
0.5002208543303954
0.4781272121960371
0.4628675822816386
0.4508716680056747
0.4393525631404065
0.4302009264824409
0.4214600154259847
0.4152263458563716
0.4090013792875103
0.3818743015915799
0.2688824202978055
0.3568520751987788
0.6069096280450827
0.6096022857564353
0.607013968162553
0.6033851540223432
0.599015958712542
0.59447688689349
0.5881821448616833
0.5797376690559024
0.5687376945454786
0.5521073925639819
0.5258708443574179
0.4433561445297077
0.2800151993368301
0.369494573335182
0.4133064799573308
0.435088845278631
0.418236240523046
0.8135616759124816
0.7874101416792475
0.7306903855503137
0.6306439644467138
0.5553344816779406
0.5015230577132432
0.4767997169595046
0.4636245946052929
0.4502682192905732
0.4399529244075561
0.4301613370910297
0.4218968003520541
0.4154229985690353
0.4095703694693323
0.383879565979552
0.2795894755703632
0.3724488534558564
0.5969923300150816
0.605424844494216
0.6088740102843621
0.6065724471248428
0.6029728804191642
0.5986599865262195
0.5941178635819285
0.5878338159584888
0.5793828193629387
0.5684332976506046
0.5518630887973458
0.526019175908912
0.4448095326979506
0.2896894088896512
0.3786083852097162
0.4133210644861899
0.4364806420262136
0.4181126421439604
0.8324442880755358
0.8127954722429579
0.7868911355052552
0.7306847972471846
0.6306522747737624
0.5550196165932697
0.5002897697694483
0.4777247988347804
0.4629857468962505
0.4507764229809328
0.4396467607683186
0.4305340355798977
0.4219225094729641
0.4157481502289769
0.41004217082347
0.3858283744399008
0.2894055489833142
0.3886547004927217
0.600830852344134
0.5953567230684701
0.6047697228164249
0.6086604106789176
0.6062098846254963
0.6026408597037627
0.5983304349987756
0.5937959806632915
0.5875086981964217
0.5790627276970555
0.5681131684869751
0.5517153887050839
0.5263885779188726
0.4472629672824684
0.2997155298307554
0.3890194894429558
0.4158703568801226
0.4379475586979971
0.4200271265058342
0.8498683886745537
0.8317270679746683
0.8124516372661227
0.7865750313899714
0.7303054310142056
0.6302091363047284
0.554784684731001
0.5012813308431976
0.476792033267819
0.4634652259619281
0.4505040414672677
0.4402133952205276
0.4306893941486399
0.4224915053711641
0.4162509427842017
0.4107143961530135
0.388836520717772
0.2990820734455894
0.4055050133880692
0.6100890465907471
0.6000100635345917
0.5954910632978244
0.6042683494646326
0.6079353726944531
0.6058450093094674
0.6022834914266347
0.597989327753079
0.5934229607427054
0.5871506017150174
0.5787385809453331
0.5678248611335638
0.551505547781848
0.526719240774782
0.4497751193589146
0.3101099379693801
0.400264538164891
0.4219941818118166
0.4393017214237569
0.4265629018070104
0.8651094373448692
0.8491032749151555
0.8312526916890198
0.8120925094870379
0.786132671160835
0.7301254917174138
0.6307279167850764
0.5548244384513579
0.5002345545927622
0.4775440730703179
0.4631054732084154
0.4510388153357096
0.440150480900304
0.4311780304178318
0.4226902137355971
0.4165459938996309
0.4113404353108882
0.3918727811535068
0.3088718248128338
0.4223789953075618
0.6239855147206539
0.608739710314113
0.5987899425314698
0.5943728432846247
0.6038673921943706
0.6078224249130052
0.6054672425521362
0.6019358352938857
0.5976516782479558
0.5930971993756615
0.5867978707242298
0.578413647291087
0.5675470795106291
0.551436827104043
0.5272292391478302
0.452903045513912
0.3206356435927041
0.411496174603138
0.4309691052049305
0.443409405929142
0.4366295713027226
0.8797001950898238
0.8642383116353051
0.8485737489520141
0.8309398523007832
0.811770934689402
0.7859501068693162
0.7297145062002889
0.630001243673994
0.5549046585413923
0.5011884821495027
0.4769036637239761
0.4635851387975096
0.4509724402474661
0.4408138818184525
0.4315489287978189
0.4233110032480211
0.4171246428912532
0.4121604802018423
0.3950645464225521
0.3182969164877114
0.4389622899173333
0.6176257487264591
0.622150108269928
0.6078824017801154
0.5987393622257859
0.5944558712715786
0.6033839324744085
0.6072345601062327
0.6051148429622116
0.6015785049821019
0.5973113776894051
0.5927285971590411
0.5864626745696085
0.5780868003773484
0.5672944469394009
0.5513463843085892
0.5278417912429133
0.4564184520013963
0.3313692284947529
0.4231166181247707
0.4436584120089226
0.4490995311661309
0.4498055585643121
0.8940939028865404
0.8790834061580726
0.8637650576507342
0.8481533610451918
0.830480670364549
0.8113273485454964
0.7855004440299336
0.7296068698194776
0.6301051651120072
0.554658468477057
0.5004148861226548
0.4775861154883458
0.4633750203344588
0.4515905011831937
0.4409370496016075
0.4320776932405367
0.4238640114548132
0.4177530175013887
0.413071329836495
0.3985164151803607
0.3275372473374454
0.4553142379876802
0.6027653388920861
0.6153497842516509
0.621467243164588
0.6074300737017884
0.5979258136227601
0.5936733226264981
0.6029235318930419
0.6070035965373125
0.604749041224415
0.6012213904928064
0.5969510176239314
0.5923744748266917
0.5860966381767752
0.5777798472102302
0.5670663804605135
0.5514046911989363
0.5286113817942142
0.4606384029248641
0.3422222983580465
0.4350930473818916
0.4586630069723484
0.4566518417588424
0.4656099304542841
0.9055527037272207
0.8927119254128085
0.878568594209339
0.8633782586558972
0.847797628704394
0.8301717573797606
0.8109283928972012
0.7851219875509617
0.7290155815917588
0.6299012041342761
0.5547575773345134
0.501316850683547
0.4772028402059139
0.4639130615897847
0.4517252956739983
0.4415972315131558
0.432619410362146
0.4247232867701298
0.41856715396825
0.4140567838780634
0.4019289599803981
0.3364979183758672
0.4722375307450341
0.5879420758509376
0.6009011433136274
0.6149821214904354
0.6208439784576073
0.6070116116128322
0.5978544793925086
0.5936555090565037
0.6025062866771186
0.6065600726653144
0.6043812938626932
0.6008607375182556
0.596609155669496
0.5920134920313227
0.5857697560472274
0.5774793595632045
0.5668908248102427
0.5515182700015988
0.529563676337551
0.4650499004453376
0.3528211638346836
0.4478964279320707
0.475883685141114
0.4656773598707279
0.4845963776490228
0.9188392130641991
0.9048328429120184
0.8922955007817195
0.8782165336418293
0.8630065087761122
0.8473982052600117
0.8297239461238928
0.8105441987175859
0.7846872209736936
0.7289601526098082
0.6297535850818015
0.5547850925041119
0.5007410137359186
0.4778857577909843
0.4638881999741323
0.4522460395551998
0.4420952079876119
0.4334659331552608
0.4257540792649402
0.4196549806922098
0.4151431328676529
0.4051192070635001
0.3451883186514131
0.4897030669444474
0.6027906365454806
0.5861176885406774
0.599940958078203
0.6142147364217432
0.6203507579347634
0.606536242754829
0.5971750994488638
0.5931060602465419
0.6019874109189779
0.6061797909166675
0.6039990956033303
0.6004963930145011
0.5962522036444392
0.5916617078213462
0.5854229223112535
0.5772267293252012
0.566769917409337
0.5517922893762558
0.5307602331591277
0.4701075348665394
0.3624939981640793
0.4615797221133712
0.4954443914286532
0.4762275551729125
0.5052670619023079
0.9300381886650485
0.9174564773261618
0.9045076444193457
0.891841513769423
0.8778201596394013
0.8625786992306372
0.8469961997511894
0.8292848135000616
0.810116548452727
0.7841948607050313
0.7284580105794709
0.6296349785619717
0.5549077600700477
0.5017559640591869
0.4777393154471957
0.464302155197962
0.4526571743304149
0.4428922988539826
0.4344620227461405
0.4271063748521414
0.4209069891555337
0.4164711305086967
0.4080355781377145
0.3534110200189765
0.5063599287048858
0.6169225431192041
0.6016793721504564
0.5854122015859174
0.5994096473286462
0.6136281662572111
0.6197863366380839
0.6060769795443788
0.5970519966526855
0.5928964621323918
0.6015884535360577
0.6057615261965763
0.6036242751826175
0.6001325866583536
0.5959146403702701
0.5913142162934939
0.5851256909755446
0.5770123376978646
0.5667702647334527
0.5522253501803244
0.5322731535259924
0.4756663268401681
0.37191063910206
0.474917445085995
0.5162467584269976
0.4883728326506989
0.5259021455170488
0.939698403453564
0.9288166031900443
0.9168547971733555
0.9040527804869576
0.8913693206533321
0.8774071939527074
0.8621357999038348
0.8464979622027886
0.828802380669815
0.8095768660807372
0.7837119309471399
0.7281721521618891
0.6296024751961193
0.5549712372426904
0.5012992876462461
0.4782169833976804
0.4645403548800743
0.4533543007098884
0.4438263413619869
0.4357556298207571
0.4286791554222132
0.4226196344618573
0.4179625380057918
0.4107482625599208
0.361050390840831
0.5222525322104324
0.628342318651121
0.6147704430352948
0.6007457317071928
0.5848404307051327
0.5988933988959099
0.613105258667746
0.6193172413657897
0.6056778666053615
0.5963842981091295
0.5925191773227553
0.6011196102797181
0.6053505367422051
0.6032485276846037
0.599767506752062
0.595569340658695
0.5909873124319746
0.584847281683392
0.5768785300338993
0.5668863238301614
0.5529073858948977
0.5340694363382578
0.4818195098578523
0.3815173139150126
0.4879048509181756
0.5358998781967392
0.5019658073659558
0.5455418904962341
0.9505512447978642
0.938484595308969
0.9281294808736467
0.9162978034609764
0.9036360695076322
0.8908724480667942
0.8769536886255173
0.861721301290869
0.846026815952803
0.8283001347330097
0.8090987939239572
0.7831600377046138
0.7277271646910894
0.6295917644258825
0.5552856983618808
0.5022206568927426
0.4784232414656772
0.4650633144482273
0.4541683943015615
0.4450332102403361
0.4372439897321754
0.4307264758840654
0.4246993196534539
0.4198526208281093
0.4133214601850579
0.3679911671731466
0.5370821203797886
0.5851212487654777
0.625941160610097
0.6139462861534986
0.600048583457204
0.5844006912095393
0.5983126028260246
0.6125287785416628
0.6187431797749836
0.6052377659861993
0.5962329687760242
0.5921670807242105
0.6006753386440571
0.6049352646179619
0.6028728885179394
0.5994168399118807
0.5952544733045876
0.5906878717843006
0.584640377770133
0.5768394230702097
0.5672111227765069
0.5538703861435733
0.536266493950911
0.4881725051028259
0.3920784354740481
0.5003176039395543
0.5562055444154594
0.5164891983919058
0.5644338242521539
0.9594290793132259
0.9492487765249461
0.9377792339786549
0.9276468949001954
0.9157558255250791
0.9032154731639964
0.8904382325765112
0.8764753356228258
0.861211936624822
0.8455409564894302
0.8277432100171421
0.8085250936900561
0.7826220458628214
0.72731808179531
0.629543205208152
0.5554347613801371
0.5023066590270514
0.4789779109684951
0.4657041409349997
0.455221897094456
0.4464112088468067
0.4391710109760612
0.4331154759761995
0.4273079932358899
0.4221912775957101
0.4158633921964928
0.3742994475068989
0.5532811172898229
0.4928650845871445
0.582680145091467
0.6250951369285612
0.6133331669297611
0.5996874426848366
0.5838342412119323
0.5978328353382548
0.6120318349932341
0.6182646275473973
0.6047952317227792
0.595624666142667
0.5918221168097758
0.6002215439283385
0.6045286998452422
0.6025176498548417
0.5990793292402123
0.5949611404684995
0.5904387278346802
0.5845073956935701
0.5769732577742684
0.5677830204447207
0.5552884541457558
0.5389401930357426
0.4953391351617031
0.4025523853954854
0.5125354887484901
0.5705145289527436
0.5305638707175392
0.5731074699354028
0.9691108843835737
0.958070347538453
0.948521029219651
0.9371823932729977
0.9270522953794695
0.9152433743217557
0.9026739419900965
0.8898910348171684
0.8759529617457277
0.8606511641681109
0.8449462755396132
0.8271771120860987
0.8078936040898005
0.7819887125543113
0.7268922978537098
0.6295879114958429
0.5558370101845712
0.5030356201399013
0.4796503090210024
0.4665764388149988
0.4564129354635145
0.448189784920849
0.441416788493451
0.4359902670568103
0.4304347360044357
0.4249136662145839
0.4184755839316455
0.3801446240871111
0.5658355018056032
0.4042454746859214
0.4903101155578024
0.5813965917653234
0.6244577859465472
0.6127267361236334
0.5990426843532879
0.5834949432122711
0.5973066280895221
0.6114587004220885
0.6176602979211583
0.6043522936205817
0.5953285066705918
0.5914807857173591
0.5997936874566508
0.6041365152481089
0.6021729141904627
0.5987705404494589
0.594718052793219
0.5902615078921705
0.5845160271849316
0.5773107635576029
0.5687451361236269
0.5572003836928027
0.5423537194371618
0.5031947462080884
0.4143192272287953
0.5247952034052377
0.5875488860317755
0.545423947998726
0.5728721286157316
0.9771571422463702
0.9676899834848856
0.957353752212885
0.9480199901393219
0.9366783234328435
0.926462576226844
0.9146429502719361
0.9021458856462491
0.8893304816292706
0.8753648822408425
0.8600827169802129
0.8443368170167236
0.8265574136099328
0.8072605514363194
0.7812991605543068
0.7264982722235772
0.6297259433984769
0.5563237378666747
0.5038175127900999
0.4805831999234672
0.4675938105629426
0.4579663316337957
0.4502396830634344
0.4441461239595427
0.439308508143642
0.4340212101975809
0.4279870343064681
0.421564924713546
0.386099765064397
0.5830653655498057
0.4304624664511552
0.4034929921449679
0.488417049385128
0.5804936046559964
0.623876895034756
0.6121728887198682
0.5986586387418475
0.582954869743599
0.5967824441368562
0.61091408348668
0.6171684703184884
0.603900207203814
0.5948865903019913
0.5911647429183309
0.5993737362310189
0.6037721169492807
0.6018559476216483
0.5985036642213699
0.5945440255787957
0.5902064702746368
0.5847036035928509
0.5779973494205108
0.5701811357528594
0.5599071044238725
0.5466680393386139
0.5118192359788806
0.4264532947173783
0.5372399829766298
0.5916427057838639
0.5409430232670589
0.5712702150053248
0.6217013393966817
0.9858783988798139
0.9755082584123631
0.9669611606988204
0.9567623652659161
0.9473836693310345
0.9361141992347203
0.9259574436615018
0.9140824866113282
0.9015519833322764
0.8887191227425759
0.8747410554173739
0.859440205631132
0.8436621962290412
0.8258632054409721
0.8065548505107865
0.7805845693034376
0.7259773472720167
0.6298783013428845
0.5569180709750349
0.5049121675521799
0.4816818540473866
0.4689978271901873
0.4597652744414175
0.4527456158742286
0.4473438487439531
0.442878187983915
0.4379669931833786
0.4316159416644703
0.4251350005504278
0.3882963301618562
0.4771632568887852
0.4651745924561365
0.43317246176102
0.4032724776685107
0.4870491958236162
0.5795899410837136
0.623237631915923
0.6116565304397894
0.59814912147611
0.5826378352868518
0.5963106911422764
0.6103574845726721
0.6165304299981273
0.60347189710908
0.5943576302159828
0.5908648778678324
0.59898758235299
0.6034498601968424
0.6015818705317749
0.5983009415898295
0.5944827817631048
0.5903075808136108
0.5851920542071902
0.5791010311363567
0.5723739679062635
0.5635909274488452
0.5521514267245573
0.5213020571964141
0.4386835464376544
0.5514355553751183
0.5838643801109437
0.5574320004761206
0.565315850169654
0.6175664602103134
0.9936228553094899
0.9840992564355922
0.9749344248698201
0.966329625474928
0.9561613353651968
0.9468603535457263
0.9355411242780616
0.9253027477183513
0.9134128074878803
0.9009092687133394
0.8880718654269735
0.8740648176123806
0.8587564581349995
0.8429562234876166
0.8251275100590444
0.8057691112293149
0.7797859421535167
0.725533160305089
0.6301861006742757
0.5577538742989299
0.5061828385683618
0.4832048533621637
0.4706873648722346
0.4620258758747844
0.4557059505953934
0.4507950274484291
0.4467652875254135
0.4421911259143977
0.4357597176212856
0.4281793021350558
0.4091004400402981
0.468072725341331
0.4881651069509543
0.4664154534477576
0.4349374818952721
0.4032012382235466
0.486599779527982
0.5786105298998011
0.6226769585756804
0.61105906451795
0.5977250437934506
0.5822090179460585
0.5958311687715395
0.6097070107101706
0.6160122436685422
0.6030238777869423
0.5942030940104314
0.590602100684713
0.5986345099267227
0.6031847082509243
0.601370152290467
0.5982057297550331
0.5945699733715831
0.5906832935925415
0.58605185250078
0.5809131951613524
0.5755394983829246
0.5685298361413138
0.5588457138415951
0.5312692662174242
0.4546931057810685
0.5395566698243336
0.5891224948211843
0.5914748470480166
0.55876093311797
0.5683473250000508
0.5908903122877159
0.5733508398772438
0.6269795528430886
1.001303411366588
0.9913985564389528
0.9835850868607146
0.9742695868493342
0.9656934303319151
0.9555535682225331
0.9462291428781915
0.9349152579792294
0.9246869656153442
0.9127759107870398
0.9002581223806592
0.8873731793364044
0.873330519577904
0.858010428542423
0.8421691821971641
0.8243110258894908
0.8049354093377019
0.7789328826991749
0.7250367905450831
0.6305978691624234
0.5587311618609014
0.5079206537892423
0.4850528539631435
0.4729011608494783
0.464762934960978
0.4589421858890259
0.454750627503609
0.4509147092664924
0.4467539831766087
0.4399601780194475
0.4334229644783953
0.4166791947088038
0.4362655991151399
0.5040613634721369
0.4887054772137147
0.4659999331649186
0.4353128087368393
0.4032820897233165
0.4846679074664756
0.5777487786174638
0.6221105311101466
0.6105599511055495
0.5972788155080038
0.5818267348074581
0.5953483239723243
0.609325207468035
0.6153278560695383
0.6026127552041448
0.5934572350890216
0.5903859668795566
0.5983355059730737
0.6029699283482229
0.6012546686069421
0.5982498565515818
0.5949082000220014
0.5913894059112822
0.5875720600431186
0.5836778751771947
0.5799691865382867
0.5747509648693172
0.5662765136503167
0.5415234275835171
0.4636447145019541
0.5704633387184719
0.4748363760352787
0.6004463069286519
0.6017534413127802
0.5840989989256358
0.5658023439261736
0.6128030965927912
0.5904512826700619
0.6251569917248632
1.008210656719698
0.9988302823873909
0.9912506103729631
0.9828547449959322
0.9736500121297861
0.9651010665446625
0.9549223797111922
0.945594599601072
0.9342464874298005
0.9239745742792544
0.9120190336058361
0.8994932557092649
0.8866221194172872
0.8725468996584806
0.8571930016319479
0.8413316238505846
0.8234315304905033
0.8039922694415697
0.7779888740531803
0.7245213521952032
0.6311453992185182
0.5601025025695703
0.5100190389681347
0.4874661006847451
0.4756377681977143
0.4678338685403752
0.4629186559461221
0.4589216445351463
0.4554674337751106
0.4501731107458304
0.438561998035068
0.4479542806868462
0.4334019650863997
0.4135287741739007
0.4311380633011476
0.5191064245913997
0.5044275150638795
0.4886376458436083
0.4669293765725205
0.4366079132741643
0.4036686539527316
0.4837351674072686
0.5766862890213574
0.6215300132787714
0.6099397681783293
0.5968990899543308
0.581453875576314
0.5948827802449072
0.6086399540915312
0.6147997164144839
0.6022212227082008
0.5936152141310482
0.5902356946401918
0.5981147112114802
0.6028101642375432
0.6012672253579605
0.5985342139419454
0.5955522444715124
0.592712102435921
0.590018351774554
0.5876836640561162
0.5856708139540139
0.5817224801188385
0.5739152232345546
0.5503834498945028
0.4966076770288014
0.5323863006165862
0.4710276141436253
0.6135201222852443
0.6063544058152537
0.5943157284025112
0.581983117826406
0.6056659753645125
0.5735468486630358
0.6252541305530495
0.5375955895267308
0.6120153735020073
1.014739447658709
1.006168837232298
0.9988532027075055
0.9904641899580537
0.9822676058723159
0.9730407000184127
0.9644718868236631
0.9542709812130652
0.9449044038073403
0.9335422751143531
0.9232577350710149
0.9112926639264002
0.8987120744218563
0.885793922221277
0.8716808840317443
0.8562882115225922
0.8403853284825576
0.8224650875090702
0.8029926063785402
0.7769516204519797
0.7239992079835887
0.6319441257641224
0.5617485202701545
0.5127192963947096
0.490433118822224
0.4787930306875468
0.4718363624473434
0.4671843753480747
0.4638210095790342
0.4586321525653305
0.4562752069003738
0.4440750717588944
0.453476946443933
0.4381663753293096
0.4204622401727209
0.4228405501240323
0.5345101003738524
0.5194238213481139
0.5044584634136574
0.4887879446679055
0.4658860082117249
0.4370475380557841
0.4043969065737681
0.4821371238798983
0.5757071504405115
0.6208966103157129
0.6094012051650949
0.5964771903826807
0.581116577202039
0.5944693896780145
0.6081454488372109
0.6143181243889075
0.6018793234232215
0.5933245805327596
0.5901779104421042
0.5980185134084376
0.6027000354615852
0.6015102355484372
0.5990917413472076
0.5967745296358565
0.5949229941090832
0.5936431714559155
0.5929317343652291
0.5920603716989358
0.5885402720382414
0.5781957445920458
0.5473751786322015
0.5664429160337814
0.4909583907740818
0.4725666384209831
0.5494299342839202
0.6148995556292962
0.6178416647462637
0.6048379890983424
0.5790629957762095
0.6130101806348841
0.5679717380124251
0.628891397718558
0.5813069478635995
0.6216668536724056
1.022640176693825
1.013576582823327
1.00583322033503
0.998000949293025
0.9898133113176145
0.9815701067041148
0.9723545244425654
0.9637796462894682
0.9535543309928473
0.9441697214254479
0.9327796397396169
0.9224250698507331
0.910443475937613
0.8978470756246428
0.8849044750485143
0.8707460016840436
0.85532634644808
0.8393798118958707
0.8214033628175657
0.8018682610604311
0.7758196532387048
0.7234223299160962
0.632926139197884
0.5638708184433614
0.5160011837026387
0.4938802029384905
0.4829123017456151
0.4762067977509361
0.4726959062570089
0.4676987872584755
0.4648873732849254
0.4601071369525692
0.4430628304473664
0.4522309074497077
0.4593775380827094
0.4399395377566874
0.4166205891343254
0.437131201651581
0.4213283895837145
0.5501912585782376
0.5345854501281356
0.5193399230926261
0.5045044012475168
0.4887743527360515
0.4669772835618552
0.437964203251399
0.4052897274336004
0.4805860831828379
0.5743388778420548
0.6203610344227568
0.6087941419926384
0.596160474090191
0.5808230439182234
0.5940689304069148
0.6076687004261097
0.6137804280255019
0.6016256353311978
0.5932415894795385
0.5902787871028152
0.5981135834405126
0.6027300069259938
0.6019984355981344
0.6002168835110703
0.5988727598136341
0.5982506485088934
0.5984438352578692
0.5987774585108984
0.5980095108478926
0.5932121717513092
0.5874283271424451
0.5601563441991761
0.5694923020767915
0.5013946431047611
0.4855368812717958
0.5173642527761777
0.6240008800002382
0.6158849181022426
0.563881075498652
0.6066544702479089
0.5737360812935365
0.5959197860532813
0.6302289834246095
0.6217791917942154
0.5344722343018651
1.028954444040601
1.020347800257717
1.012870875837542
1.005071346675634
0.9973713306944979
0.9891612286619448
0.9809348157396421
0.9716870995263315
0.9630573024979892
0.952809502424
0.9433887744008191
0.9319952633047248
0.9216003949993335
0.9095612150036857
0.896920334468557
0.8839365999222414
0.8697327387899452
0.8542597393776935
0.8382381526341786
0.8202280946860535
0.8006121281930293
0.7745943760908768
0.7229207398510041
0.6342468203133783
0.5664709621168545
0.5197844630210137
0.4983324939465066
0.4876789276861036
0.4826885059113103
0.4769735604166601
0.4672826805216287
0.4747639469222343
0.4681009424115251
0.4671053863505469
0.4481071899990719
0.456583961397623
0.4632147932039278
0.4458675326727216
0.4246349486443823
0.4438340451535971
0.4213227730723317
0.5651872898984837
0.5501799120444244
0.5345419590973886
0.5193577797501908
0.5045083463478186
0.488946445244096
0.4658579571063044
0.4385214911336031
0.4068804582620563
0.478915230899611
0.5730387668085167
0.6196980955211963
0.6082382569246918
0.5958316995342765
0.5805954032466956
0.5937589237115037
0.6072456166062297
0.6139161635146309
0.6014534384654142
0.5932371377546621
0.5905735324810558
0.5985283096024194
0.6030983473714222
0.6030573645099226
0.6022233638175676
0.6020461819801234
0.60269057710185
0.6037991093605748
0.6040744256986447
0.602216695208328
0.5928946274053908
0.6002396127138518
0.5886902471715999
0.5639872753754976
0.5800222483999069
0.5409042601536127
0.4877601396842473
0.487818330809822
0.6260141302729882
0.6211719245398158
0.5533453288498282
0.60516097384041
0.574585133253289
0.5975143670990343
0.6339054903179936
0.616503257617152
0.537928146417147
1.035378606045687
1.026683124349644
1.019902105431758
1.012295710668852
1.004447605508459
0.9966390701876415
0.9884315359785196
0.9802027366098444
0.9709205032791256
0.962266671374269
0.9519836427562764
0.9425395271045426
0.9311065365509601
0.9206655110453491
0.90860299979901
0.8959149760500614
0.8828896303820514
0.8686320754597178
0.8530777135053805
0.8369929284441529
0.818904469796863
0.799207984802848
0.7732095320285383
0.7223977857630406
0.6358656412035623
0.5693899054431411
0.5245257854379097
0.5035746525532243
0.4947215931602928
0.4855211953011027
0.4830934383486807
0.4720478412885254
0.4765332990380691
0.4723587176823796
0.4675841014598629
0.4548934156405702
0.4629153228043734
0.4650021814146716
0.4503015658966061
0.4419713664092761
0.4221961996018974
0.4499993406484346
0.4590376622846363
0.5818405772872872
0.5651187442299465
0.5501327234877917
0.5344524151067173
0.5193236430140437