/*--------------------------------*- C++ -*----------------------------------*\
| =========                 |                                                 |
| \\      /  F ield         | OpenFOAM: The Open Source CFD Toolbox           |
|  \\    /   O peration     | Version:  v1912                                 |
|   \\  /    A nd           | Website:  www.openfoam.com                      |
|    \\/     M anipulation  |                                                 |
\*---------------------------------------------------------------------------*/
FoamFile
{
    version     2.0;
    format      ascii;
    class       volScalarField;
    location    "2000";
    object      T;
}
// * * * * * * * * * * * * * * * * * * * * * * * * * * * * * * * * * * * * * //

dimensions      [0 0 0 1 0 0 0];


internalField   nonuniform List<scalar> 
18230
(
247.37512988435
239.9498322497126
251.4843142067417
251.1028359864909
216.6939444805826
246.6050468196798
239.09354021556
254.0173448416435
252.2161799587965
171.3069320885946
212.6511824275165
249.4991256033272
235.252922957406
243.5291003282871
254.9547955687893
252.8950987995713
189.4973712931995
170.9395969611089
211.6811113570898
251.0269415863076
222.4703698687524
242.8933380269959
244.9481302094409
255.6043941572859
253.5142906728589
190.9203738276418
188.4381578893966
171.0366854680018
211.4290840766796
252.6869087524573
196.27030033652
216.2142608834472
247.5943497460736
245.9524609555596
256.257364045186
254.0690794484686
191.8840094205514
189.8144270203366
188.4643278500874
171.3416626457249
210.0788865251045
254.3103062624728
225.385135974675
195.6952182065786
211.2956539472377
250.2165394711045
246.8292182967718
256.9366543146336
254.6072857829577
193.3575623698022
191.0819663591361
190.019780053238
188.4769063418848
171.7644929719683
208.346508111685
255.9452018692037
230.1311594073002
225.7092800060127
196.2923628574977
208.4283375121978
251.6735726723351
247.700601769773
257.6662746211948
255.1042100816909
194.973612727217
192.6377940640978
191.213141077979
190.0127445706775
188.6773156186926
172.1839804111526
206.3913567747296
257.5164115140475
232.5342453033135
230.3765699737876
225.8158100193124
196.8951671665537
205.0862277028921
251.8929886099441
248.5206820424342
258.3324880720586
255.5774579311141
196.7723217450205
194.3348443900699
192.740756973201
191.2564510291541
190.1548672609398
188.7875336857522
172.7673931739879
204.0076091094481
259.2128756736349
234.3243779541036
233.0427608431676
230.5672516341577
226.0284764524349
197.2469361306544
202.2583580737757
251.9198518294168
249.2852918446987
258.8814759787305
256.0242542697382
198.8975223646698
196.241511866064
194.4690662122053
192.7995633596078
191.3491225058675
190.2358129668306
188.9390300939192
173.3103981584974
201.1936781304132
260.8346580584843
235.614875371165
234.8092191924824
233.222500394279
230.6775392806447
226.0612323984084
198.0349093189441
198.9196609528867
251.956956614976
249.9833785394078
259.2840800621714
256.4862464729234
201.1343422466942
198.4363721533519
196.3399748990529
194.4800868929779
192.8834624973711
191.4350988534906
190.3552302814149
189.0968233823012
173.9074912990329
197.5816899934022
262.1660079709814
236.5826230567611
236.1046599399014
234.9972984395215
233.3667488147656
230.8142074876716
226.1707237979746
198.8951048786152
194.6934285535827
251.5192583872583
250.6615146632443
259.5516915013889
257.0569110537884
204.6668544616998
200.7700222428606
198.538855702511
196.3807605101207
194.5899903807432
192.9750070134538
191.5359723596673
190.4546444885382
189.2452555483172
174.4576027309253
192.9921057640202
262.1267770514753
237.2778215430669
237.076006241685
236.3013091632826
235.1379058162486
233.4980686908902
230.9444570580254
226.3830275865625
201.6676968147509
190.4670777971072
250.6407623885289
251.3207486168262
259.7055254697576
257.6951352771158
212.7202609159783
204.4698420545819
200.8465908011843
198.5821169622142
196.4846071742215
194.6805583466508
193.0897957321883
191.6466562237896
190.5899442931176
189.4132199959495
175.0961135288478
187.4518870130851
260.482967122685
237.858726244226
237.7816137390236
237.2859045405842
236.4503905402267
235.2772759454994
233.6260841050955
231.0577931843914
226.5278433478724
205.0953747928951
187.1224550281715
249.175683277512
251.8400724015673
259.8340157902244
258.3408264654972
223.852809732893
212.7402812859043
204.5888035358368
200.9050940359929
198.6801959122027
196.5726476480397
194.7790242852339
193.1938414267204
191.7763169293259
190.7071440077354
189.5777353648379
176.4079903622158
182.4445619683551
258.3437471846492
238.3267376530288
238.3690286698814
237.9775838689435
237.4287298336602
236.584108443485
235.3993778476541
233.7573692945693
231.1956452477031
226.6307262607104
207.2841615403576
185.0025082979016
247.3810985499281
252.3104520679672
259.9818602114902
259.1018442610145
237.4790481127316
223.8175654768689
212.7892565529382
204.6469322076255
201.0050698087848
198.7607697795104
196.7012782989793
194.9033376649261
193.330358818144
191.8958656133703
190.8537671006429
189.761882321691
177.855001294264
178.9780954205834
255.6187273369963
238.5083327864766
238.8521522699835
238.5725289593341
238.127224280557
237.5674380976241
236.7132209028909
235.5236406899495
233.8736783635948
231.3215456268249
226.8298890973719
208.808225581433
184.0666489799034
245.294256769359
252.9712482695288
260.1636659870838
260.3377932609868
243.8434227131268
237.5017090215467
223.9288015490201
212.906557525024
204.6984480071998
201.091255251267
198.8828052445176
196.8038040530582
195.0278801864227
193.4468490930958
192.0382541711153
191.0004853215007
189.976088903886
179.1365374978838
176.2442233432475
252.3237679037441
238.0759647450172
239.0725201818358
239.0584870407849
238.7311707582488
238.2702710616298
237.6973992595794
236.8449897713941
235.652915792005
234.0106725126352
231.4551132794083
227.0160577734487
210.1186827336182
183.9310406660434
242.9040153339043
254.0348974082432
260.3394532893371
262.4658832030998
246.9472881026842
244.1286425588054
237.641627099384
223.95133939366
213.0269396918745
204.8082819355629
201.1887385286925
198.9771746117095
196.9300014521045
195.1613002158913
193.6039446245099
192.1976814907611
191.1869836793348
190.2082344596988
181.0458041892821
174.8511855995704
248.5332634320589
237.416210133063
238.6588913977796
239.2934930720091
239.2144569211354
238.8683473341892
238.3999618037052
237.822773319977
236.9678931589599
235.7752796833045
234.1394396276732
231.5927449245193
227.210845212076
211.2372201254703
184.342347700068
240.2245071580332
255.4722465428516
260.5566620816564
265.1702073645458
249.0492260212048
247.1512170281788
244.2294850950331
237.7444410350934
224.0862138045246
213.0957359520381
204.9104117146719
201.2970897535448
199.1106785472977
197.0564142427184
195.3032295683183
193.7578670653644
192.375461275715
191.380025734326
190.4682067678359
183.0524353010752
174.4961145170253
244.2739844798878
237.7904339861034
237.9226594446006
238.9035989876571
239.460542559867
239.3668555334451
239.006589621955
238.5324402276325
237.9520540659104
237.1001297901564
235.9027780164129
234.2685939118079
231.7399970117851
227.4466363138834
212.3654157936117
185.1138354275861
237.2108947903891
256.1163301863144
260.7833593767681
267.6440113952692
250.901402625845
249.2623734788652
247.2869342819219
244.3292924989426
237.8268807366808
224.1201997970773
213.1882663559158
205.0264228301376
201.4160266508316
199.2225279679772
197.2023714687509
195.465683134889
193.9558353499041
192.5879398102615
191.6423217151897
190.7842259905587
184.7487692270273
174.7371809705083
239.4902033848689
239.0538993968925
238.3343334015148
238.1456547136998
239.0977631448602
239.626277461798
239.5052687941885
239.1440880384016
238.6591345179652
238.0775317100588
237.2235981320265
236.0361149541132
234.398725879743
231.8821205308338
227.678496457056
213.4176121071688
186.2268903430712
234.1432308585618
255.8714354431111
261.1096109473254
268.3251962770429
252.5445331924334
251.1282461840715
249.4034462697149
247.388616655218
244.424465518549
237.9320836387876
224.3305806405152
213.3214225284988
205.1401108011329
201.5396702711178
199.3720827008161
197.3634985544329
195.6536472318652
194.1620497151555
192.8275618570974
191.8970777445971
191.1183498151608
186.3440813623261
175.4084896845206
234.6199745232136
240.9017075573357
239.6527401827536
238.5701097371994
238.3222206576516
239.2846043680212
239.7817415195993
239.6445213303944
239.2754037250752
238.7910010905415
238.2092915105922
237.3539626140566
236.1628259393622
234.535074475427
232.0389463584412
227.9481586136711
214.4357338988952
187.6172374216528
231.2654542484759
255.0452036002767
261.6350862293253
267.9741576360706
254.1233582749916
252.7862777252931
251.2788106702564
249.5147105493939
247.504576009739
244.5493594304785
238.0223218576204
224.3606289853261
213.467232041852
205.2841585357699
201.6850424048628
199.5130337960469
197.550057610376
195.8657913355781
194.4262549185628
193.1170504159265
192.2207285586815
191.503927035443
187.9968127732488
176.4975775617559
230.1988351240675
241.004264849244
241.5748476094931
239.905630011367
238.7500317634875
238.470309906827
239.456836828528
239.9374117449532
239.7838187156013
239.409700713253
238.9216208503757
238.3395580004932
237.4849434242914
236.293133717172
234.6677551202857
232.1898227151619
228.2433600291926
215.4942591811945
189.2155977071484
228.8088717507622
253.8613126842044
262.0814267411098
267.0516262723644
255.2442539971105
254.3290214053974
252.9338798313609
251.3878298698528
249.6192537226094
247.6033736173806
244.6573904964227
238.1607213263904
224.5277297307843
213.5659303291052
205.4337967471098
201.8298769329555
199.6908137058428
197.7619164314285
196.113823916748
194.7086759751753
193.4540774633262
192.5734922474637
191.9315974062269
189.2662573111397
177.8456915667459
226.4241947667398
240.3790135898512
241.7899336461856
241.8745163882564
240.0942389795834
238.9158245676217
238.6272268128701
239.6296475052613
240.0899687154576
239.9234497164171
239.5439921742144
239.0550195408777
238.4685767919525
237.6126125460115
236.4206428931039
234.8040579154003
232.3484591570262
228.5445247933661
216.5726610349968
190.9655973878411
226.74776835437
252.4923039415249
262.3567686787548
265.8746028738439
256.6976619900894
255.5940930343979
254.4342377724939
253.046603944124
251.5095091217381
249.7388625810984
247.7225148617989
244.7794436890717
238.2431558054014
224.6619430651895
213.7456655287235
205.603406859526
202.0117980632803
199.8812207944734
198.0070776319453
196.4066528271144
195.0442526299973
193.8438105083144
192.9847402359676
192.4287751130313
190.2916719175047
179.3243910626838
223.5027302682377
239.7181215730021
241.1737466447465
242.1176121756391
242.0860770194958
240.2831601747776
239.0821049234824
238.777420191901
239.8099189736103
240.2434784792418
240.0648695480658
239.6833823318719
239.1880777931608
238.599849626395
237.7413644752634
236.5486344752585
234.9351398515601
232.5051984378495
228.853260212887
217.6275860282033
192.9658424475084
225.1819995493563
251.0770610151169
262.5640897868794
264.6580832475137
257.4856922994234
256.8704692449176
255.7566165021998
254.5425378831295
253.1659042883265
251.6245833195048
249.8574537416748
247.8556947239611
244.9116493959913
238.4201646536388
224.8062807083018
213.9128536668974
205.7846453489424
202.202962404706
200.1136737756673
198.2856754349646
196.7418664949354
195.4348777771466
194.2986384795418
193.4580280911743
192.9417325020637
191.2181045313442
180.886567138453
221.5038863955801
240.9767225020832
240.4701572061136
241.485903528061
242.3625976310187
242.2896838189366
240.4511950495703
239.2436161307648
238.9251103086805
239.9816625969982
240.3980062181346
240.2065200065444
239.8195438646976
239.3209033697067
238.7269630734135
237.8651302944505
236.671656777794
235.063512208726
232.6615659709873
229.1505739919014
218.6673938591284
195.3320795828162
224.2395944227682
249.7219332550531
262.7056019166944
263.3398318942556
258.5986195651
257.8542704342009
257.0085670542412
255.8883113606974
254.6608178724609
253.2776165261966
251.752312728763
249.9889577679998
247.99716906256
245.0536834219343
238.5500861484453
224.9685876308526
214.1059079603029
206.0071316282176
202.444760795764
200.3686655161085
198.6082031205651
197.1270671560666
195.8847998940658
194.8308269149699
194.011294029623
193.5016491332596
192.1057972941766
182.4564234407938
220.2489536107453
242.9496039920509
241.7109696162338
240.7604927565102
241.72736346688
242.5920797417871
242.4835830025181
240.6218788239453
239.3992121873127
239.0760144240044
240.1615014281427
240.5522749638776
240.3503219213707
239.9557867354167
239.4536174905812
238.8526235827243
237.9851922341981
236.7886233409289
235.1860901335313
232.8172061108813
229.4110850515169
219.6200954453699
197.7908140060126
223.8558640105967
248.5256521206029
262.6662610132864
261.7915093526724
259.5494617388738
258.9369742437589
258.0452217116572
257.1122610595172
256.0189115463149
254.7797975641311
253.399660424379
251.8801481550238
250.1315999028225
248.135191281427
245.2167231775879
238.7238118650122
225.1729790557081
214.3139608719052
206.24281982671
202.6934947221183
200.6686478351385
198.9791054088564
197.568522197765
196.4075769589936
195.4448031654375
194.6517077786723
194.1180534332782
192.9586518874798
183.9945681534004
219.6831269985173
244.6448548315493
243.7979282498885
242.0063152594477
240.9813599293976
241.9511314443413
242.809927369312
242.6821739217478
240.7997275512527
239.5586899799928
239.2223503696499
240.3377936160973
240.7042958892945
240.4912655842548
240.0904885115706
239.5812434999806
238.9707060476149
238.096033402273
236.8937261570956
235.2961209064306
232.9634074855338
229.6568708535572
220.4877124355294
200.1488344287729
224.016784249918
247.4381970995978
262.4589100299616
259.9958257009732
260.4562812543315
259.8887486071077
259.1238415691074
258.194720499984
257.2379732404785
256.1450321572162
254.9093549585283
253.5331194349759
252.0244757292816
250.2802616724149
248.2996205352216
245.3823560005003
238.8986154151956
225.3971759849327
214.5809342080129
206.5369538077047
203.0059517240259
201.0117491738875
199.4018552486299
198.0786052339331
197.0088603121914
196.1510045634289
195.3853421136975
194.8146233565308
193.7983513394843
185.477158418849
219.6934442461534
236.0082828635798
245.5428808596137
244.1095073243584
242.2134895469951
241.1835527488249
242.1603321364013
243.0244264715878
242.872552694977
240.971678348386
239.7194142294302
239.3700448142827
240.5125749590221
240.8551079316376
240.6284402510112
240.2217829305465
239.7038582500028
239.0805716682198
238.1942970911608
236.9830691694699
235.3871223676169
233.0864663628401
229.8701622505606
221.2732711863713
202.3927673185183
224.69139956466
246.4339195197334
262.067461178904
257.8043152288644
261.2539695891592
260.8106098230706
260.0806755013706
259.2772120432916
258.3467324096735
257.3678175177112
256.2887232959844
255.0468158278278
253.6724288687295
252.1814933486646
250.4388667385712
248.4664319256722
245.5727923030459
239.0890466101323
225.6345572243926
214.8533957110325
206.85378344853
203.354441012111
201.4082053942062
199.888128602389
198.6628168651793
197.6993695355472
196.9485276555909
196.2230089919071
195.6188816979392
194.6864595075368
186.9180025199578
220.4617910457061
225.6412905153111
237.0897270717137
245.8757767464866
244.3478069609003
242.438127221967
241.3788387022117
242.3676492623745
243.2360500164478
243.0749743510663
241.1480752108348
239.877829182593
239.5142276736409
240.6850029162606
240.999190521343
240.7615912155665
240.3457466514991
239.8165377011173
239.1753682323581
238.2723068005882
237.048710118571
235.4490175462734
233.1690810650559
230.0126669747143
221.9846085772767
204.3567362763315
225.7207318978479
245.5014570841675
261.7300664031181
255.2496905620057
262.0468290211597
261.6224238550259
260.9984721773223
260.2267714816618
259.4253368038222
258.4982525928895
257.5039155586807
256.4360726558701
255.1998830803568
253.8270907404047
252.3413671083078
250.6132795218769
248.6450546020028
245.7663669112326
239.3102797214413
225.9143393337844
215.1840945352644
207.2330164021805
203.7622521551739
201.8671273535582
200.4429225031045
199.3295920467169
198.4756963984013
197.8373038341889
197.1815490207375
196.5686054127938
195.6500268986305
188.3526868349459
221.3120649811872
215.4426197629812
227.0705375597597
237.5222131604058
246.1211660986033
244.5670726657323
242.6254771476522
241.5649636391391
242.5698995179557
243.4502459284178
243.2680688132324
241.3297833626366
240.0364817988655
239.6570856419065
240.8501732571734
241.1349720251628
240.8855489443236
240.4601506362563
239.9142432852533
239.2490523108318
238.3216600499569
237.0775469526812
235.4622414381335
233.178409372131
230.043500563095
222.5409266217192
206.0339418560334
226.822884293343
244.3653649082967
261.4595398172325
250.3141312282545
262.7587062887672
262.4305678816629
261.8179229041373
261.159197444336
260.3881190316796
259.5698311915179
258.6507099990566
257.6558183367978
256.5960646023298
255.3632510433254
253.9985406282729
252.5194641086011
250.8015009686218
248.8419063944787
245.9784945968989
239.5516447379215
226.2334456017655
215.5619329659952
207.6710178074563
204.2363970521993
202.3963706042962
201.0729013619897
200.0750244408702
199.3357513376041
198.8312773788104
198.3123827831694
197.6447121709151
196.7731699347892
189.8641589234454
221.9196482753009
208.7279474615702
215.8949146861966
227.6415160825495
237.8900750861498
246.3387080368881
244.7946226917252
242.8263482193769
241.7450320033956
242.7708789100708
243.6601614867501
243.4704101904034
241.5096370671335
240.1919555972721
239.7921986018623
241.0065719204273
241.2558446551858
241.0000030818526
240.5583777301923
239.9899496690211
239.2910125688752
238.3299882844553
237.0508168978875
235.3981223276562
233.067506724969
229.9088316560438
222.9002503870318
207.3202983357535
227.920747103453
243.1418603754611
260.9853458278332
258.4374629684413
232.8393157174494
263.4333282281443
263.1564441762577
262.6348709014846
261.9786492987081
261.3144808239304
260.5350223411369
259.7340455259589
258.8194516091946
257.8213736141802
256.7679755307715
255.5410284387266
254.1813639185687
252.7114349676604
251.0006079175456
249.0554990168484
246.2134784414332
239.8053920524918
226.5853420015209
215.9867232887218
208.1836734813682
204.7849035405114
203.0038340058499
201.7777865707509
200.8953178172962
200.3063392983372
199.9678639089335
199.5616287504257
198.8934075495225
197.9113092305419
190.7310264832454
208.9409021694585
209.4703641488503
207.0948950206745
216.0210357797738
228.1834379941434
238.2587704559254
246.5781888722662
245.0114436573911
243.0154622869019
241.9255292159091
242.9699823748405
243.8735719122942
243.6732887035358
241.6939452397042
240.3451406843341
239.9209662572729
241.1508921289235
241.3553036577359
241.0966738820853
240.6331144846638
240.0316627448465
239.2872163315838
238.275128476012
236.936312309486
235.2030067067152
232.7701178809232
229.5636294749905
223.0482674144367
208.1923203620171
228.9159671294733
238.9855243722206
257.2720244574417
257.9290632661894
231.3223014324851
264.0329711386254
263.8444255629245
263.3629005779445
262.7964540197718
262.1469970704139
261.4731887528885
260.694176358504
259.9004478418921
258.9926474914028
257.9964265763171
256.9498940288358
255.7337875375237
254.3807003003987
252.9211429122739
251.2210016149006
249.2860863658935
246.4681873163717
240.1003508421514
226.9975751164884
216.4819209169078
208.7733660609823
205.4179134326308
203.6910429350167
202.5547747509108
201.8230507281808
201.4271304051075
201.2126210929611
200.9401551407677
200.1473099729035
199.4632137102865
195.2862266699695
209.0891413430757
213.748688900789
209.0456061585227
206.6770967188696
216.0679625129827
228.8466553408791
238.6266833715447
246.7882483369416
245.2170838698315
243.2016736905332
242.1002820999476
243.1658077318709
244.0828785300025
243.8718788773544
241.8734740446554
240.4912786388923
240.0371582882719
241.2780961872498
241.4282123850509
241.1689575402218
240.672620797568
240.0252569286247
239.2168189063937
238.1260113614503
236.679881790373
234.8026087024118
232.237772690195
229.0280866666884
223.071019722098
209.6124345478724
225.7646688622343
242.7549643563314
235.3293712212688
261.5854588539359
265.1674075970533
240.8467414097191
226.9718718386407
232.0729488946248
264.6422798497279
264.4714598998987
264.0558789427338
263.531672567546
262.9626175234568
262.3059423421735
261.6356630218066
260.8650890318668
260.085183735091
259.1827924852564
258.1913556971382
257.1483600716361
255.9412724108248
254.5967117272691
253.1470782303559
251.4601047410033
249.5418296326469
246.7451049199659
240.4258618286849
227.4591290893495
217.0462162447212
209.4558985097597
206.1362177001478
204.460953817527
203.4450897809765
202.9108466492353
202.6845892466012
202.5858881704373
202.2842928708343
201.9466908538751
201.0217306420886
197.8919147269567
201.6985473840409
215.8265998125701
213.5317401195759
209.022854277668
206.2796166961506
216.010787093708
229.3571071415271
239.0199364776734
246.9937668301214
245.4405243523612
243.3975101997623
242.2671754501164
243.3559341367802
244.2899908930191
244.068835843059
242.0505815195796
240.6293869713894
240.1350239648903
241.3795851030051
241.4740842516999
241.2062058947262
240.6614281547703
239.9485657014425
239.0464506108217
237.8251766651676
236.2030650460401
234.1413013364015
231.5049790342503
228.4699013746988
223.391827879758
210.7459977216559
230.284322573484
213.3408289232048
240.3413443421033
235.1893819435511
253.9502582098055
264.9980414815766
239.3523068007223
229.7455867828804
232.506214838854
265.3372472819012
265.0890741430935
264.6892816898736
264.2248236804983
263.7010944111073
263.1291003877341
262.4726572867727
261.8102258568442
261.0478306105988
260.2743012578884
259.3780427311948
258.393855930403
257.3619907009809
256.1670521327978
254.8309871657475
253.396822987771
251.7227694116671
249.8147258407898
247.0498119123883
240.7910895034997
227.9896017410375
217.6967352250485
210.2292293972384
206.9464723335496
205.3582459441049
204.5089732154899
204.1729053491046
204.066598770976
203.9344092724189
203.9685370524213
202.0163055054151
203.9159559488812
201.5043828176953
197.5321427678071
201.23139510254
217.9665619112742
215.6573565465752
213.5221398842301
209.0968547309359
205.9280288254549
215.8154270489543
230.0252466775841
239.4356318688167
247.2183949800178
245.6534629467191
243.5847180456656
242.4258151471843
243.5379961237052
244.4855863268047
244.260002946184
242.2174685360469
240.7528379813518
240.2077398213027
241.447384863034
241.493612955503
241.1939831166696
240.5765591640403
239.7713760278219
238.7156701385337
237.2873322413389
235.4443802976495
233.2587910257083
230.7775864108706
228.279223795927
223.2065442508292
214.4068557809856
221.575030841319
210.0042775689545
241.9853104241878
237.1382297583135
231.818960686078
256.3216262491632
249.7187574193709
263.0351505505561
232.7135447635142
219.980000286154
234.0802557790029
266.0878853900304
265.7598892544873
265.3253079705612
264.8639230869026
264.4046600579643
263.8702588603589
263.3029300895117
262.6546668501946
261.9973761238736
261.2421846174669
260.480518991649
259.5955243629226
258.6174114240314
257.5920885595631
256.4100924135216
255.0851585733844
253.6651068878481
252.0068852930642
250.120073263049
247.3829437822768
241.1998918838673
228.591310142672
218.4296663149629
211.106159221378
207.8954559680103
206.4432828987718
205.7774469790779
205.575156897741
205.4805410057712
205.6510933790022
205.5285905778764
203.6585503865338
205.364706084982
202.7465710126153
199.5094065363859
200.0517145432915
220.1229977577009
217.8454437469477
215.65923841682
213.4816335464892
209.0541630067277
205.595190603707
215.4360402460261
230.6886725449984
239.9032441858292
247.4461097992446
245.8775762354754
243.7705500566742
242.5731470098225
243.7063659137656
244.6721942422772
244.4412819985658
242.3717154670778
240.8556521510567
240.2432627293494
241.4620459037583
241.4831276055135
241.1045519715579
240.393074623431
239.4249175257321
238.1277367322614
236.4438368303899
234.4415790506652
232.3764359529361
230.4682565870607
228.3180974368041
223.2729537996327
226.2866664887258
212.8906281375127
210.3377147034433
224.2004843507354
238.8633315484631
237.234078275599
232.8094488234384
252.680150891615
245.746285575863
262.9078122938132
233.3926059571877
228.1216042153412
234.7962359243175
266.243953297051
266.4036517149319
265.9803003976879
265.5035431906142
265.0423860724949
264.5738747768303
264.0433546403427
263.4832884089572
262.8476503178847
262.1970194615079
261.4484282182557
260.6958448375418
259.8212117119442
258.8567556116943
257.8415977164389
256.673555548982
255.3644710672124
253.9588370456977
252.3200227436537
250.452037520047
247.7537772382939
241.6528845913483
229.2611247627794
219.2484196066656
212.1293425536946
209.0402155191555
207.7354339048715
207.1964843663082
207.0924194898038
207.2416599196019
207.2117194105798
206.5194756045325
203.6333170508047
205.2951146305867
206.5791575620198
203.2579829035189
198.963971228989
202.8036460481507
199.8693124749411
222.389709634521
220.0777649608394
217.86615842489
215.6358045132245
213.4664992721528
209.0900832872127
205.2693942382104
214.9672996840512
231.4405054960529
240.3859325391814
247.6705302924825
246.101320837876
243.9485799949499
242.7016050248835
243.8560506730992
244.8405720288931
244.599069651785
242.4949261509461
240.9271459555666
240.2174321027152
241.3897300089621
241.4121177310795
240.9192659679575
240.030998393925
238.8019059632641
237.2128519625303
235.3377465631639
233.4245530967019
231.917661255402
230.3746485686257
229.5677135453332
225.4094961422245
226.7689987325387
215.3788006340833
212.2688383829348
218.6072980321734
238.7392895461147
234.9211058347021
227.1709303251714
242.8725313638539
258.723200472193
253.7597137445744
236.7286720417373
234.5889877966271
220.7086741110599
266.8331182393985
266.7296626321963
266.570560409884
266.1567750829773
265.6852271126136
265.2258769936752
264.7572035125013
264.2322559329754
263.6800628115467
263.0554424180154
262.4104445106031
261.6719792080665
260.9334970916583
260.0672944915057
259.1154543435267
258.111935082568
256.9599117672154
255.6632984071212
254.2847716221276
252.6628957808928
250.827733085373
248.16541082603
242.164368566339
230.0150615953477
220.1936992748541
213.3456688684769
210.390408851203
209.2181649348624
208.8715354003183
209.0732048538012
207.5235328805582
208.9230819318254
208.1043068018338
208.0299050355116
204.7707295344051
206.3103863347861
207.5183196126368
204.4050729452955
200.4662315146841
204.014750596158
199.8705112706046
224.5370467330876
222.3775835299467
220.1129625902976
217.8609816514239
215.6361439789382
213.4376588594966
209.106670442125
204.9580921824075
214.1310152522336
232.2238556086581
240.9202958140341
247.9113643633724
246.324538795028
244.1159316791734
242.8070750394201
243.9799857824572
244.9836933814018
244.7284440615489
242.5848598744988
240.9436963836039
240.1138124604801
241.1879914732926
241.19704378217
240.5371726959031
239.3706168034332
237.8358430320589
236.0205770784363
234.2060621959336
232.8491471796351
232.0152338193797
230.4340105460237
231.6715526011812
229.7435078599936
225.844062793107
228.4160129837491
222.1444166304165
213.6576014367899
213.5700142067752
236.8147660794032
235.4164433756613
224.9467414453198
238.5433851071962
258.907969037823
250.7008825961547
235.1826551193828
233.8168103077317
221.0593667422974
267.3000377038277
267.2975547851459
266.9744829247591
266.7287647334475
266.3345370090615
265.8664807646668
265.4118650705051
264.9475369876164
264.4297119866472
263.8917228225603
263.2733608509513
262.6410547355226
261.9084024068361
261.1839902447422
260.3320833212506
259.3949345336015
258.4062456340018
257.268086104371
256.0011612763685
254.6420884091468
253.0513690742768
251.2402750645139
248.6179577976434
242.7236311565194
230.8780084148902
221.2930650465467
214.7470222446709
211.9471791094168
210.984929350559
210.524860517067
210.5228718534362
208.7941790606151
209.6304547918751
208.9809177476321
208.2818101341005
206.0466867871133
207.4946535538903
207.857539353467
205.1826363598144
203.6560821266596
199.8689060345129
205.1230446892226
208.6078485301912
226.9356073207847
224.5916240765495
222.4447125944817
220.1137916258195
217.8747255545959
215.6183283226317
213.3975933041645
209.1042373378771
204.6298582532688
213.0855597274654
233.0335612490266
241.5104549412806
248.148254679181
246.5452651684398
244.2611930711907
242.8768884456453
244.0613686820776
245.0872272831575
244.8079235573351
242.6189034282072
240.8764725297702
239.9021947678271
240.824947283494
240.7457184257217
239.8328974983084
238.3586134947068
236.5816118155524
234.7943666282357
233.5260479690889
232.7701316901261
232.4924511387357
231.2339803742968
231.8504128001105
230.5804057440675
227.6931481037525
228.8077926979169
223.9481872298806
219.6289933835694
216.0898508528666
236.3022559776604
235.5410968763538
218.733201264367
228.3422772783466
242.0720955963135
252.535095298626
256.53278033293
238.6863031377054
235.6604932698371
235.0673596479941
229.8591709739107
267.7814421619497
267.7852104061297
267.5325828374469
267.1754326896617
266.8982536236925
266.5106705319224
266.0609205860753
265.6110941273238
265.1534462582553
264.647984228086
264.1187059150276
263.509975466143
262.8888501205715
262.1635150315886
261.4562330154898
260.6185834082098
259.6984919434583
258.7219595359202
257.6160957784694
256.3694244959555
255.0396769035959
253.4777884026426
251.6951972363316
249.1114626459108
243.3398568672253
231.8486086058144
222.566284770284
216.3230849880368
213.7737198334796
212.8092048077618
212.2808299371021
211.751014223659
211.1639890170386
210.082022508213
209.1280054515506
206.8323629065082
208.0716476195769
208.7933610893203
206.4819666129783
204.982983643196
201.2821702740264