/*--------------------------------*- C++ -*----------------------------------*\
| =========                 |                                                 |
| \\      /  F ield         | OpenFOAM: The Open Source CFD Toolbox           |
|  \\    /   O peration     | Version:  v1912                                 |
|   \\  /    A nd           | Website:  www.openfoam.com                      |
|    \\/     M anipulation  |                                                 |
\*---------------------------------------------------------------------------*/
FoamFile
{
    version     2.0;
    format      ascii;
    class       volVectorField;
    location    "2000";
    object      U;
}
// * * * * * * * * * * * * * * * * * * * * * * * * * * * * * * * * * * * * * //

dimensions      [0 1 -1 0 0 0 0];


internalField   nonuniform List<vector> 
18230
(
(-81.71996776035323 -33.51489749674174 9.551511433367288e-15)
(-129.1534251081061 -8.191129393980543 7.347426909433736e-15)
(5.035595286704844 5.464200177723152 1.109848431909735e-14)
(-66.25925403772953 -26.71481055278717 1.163597404851938e-14)
(217.083458141715 -75.00431672194286 3.766117227897294e-17)
(-60.68205140948944 -5.04885272943849 6.990770771662762e-15)
(37.17344153482259 60.40464117807877 8.764790425828817e-15)
(-0.4856430028032282 1.737633139804183 1.156452112837353e-14)
(-62.81693986654293 -25.10917712417657 1.170250558924396e-14)
(338.903678281577 -240.0702582561505 -9.629735242397628e-16)
(299.2221275340681 -106.3279074616228 1.416404009978224e-16)
(-37.01610004567329 -5.516311089298873 6.895087011278151e-15)
(10.21023334941089 41.18474166121604 8.791203561198003e-15)
(28.45312448649968 45.99717894624528 7.151126236046545e-15)
(-1.210526744138767 2.220456253680775 1.214958702473489e-14)
(-60.11570469166045 -23.8849480141611 1.213828958750548e-14)
(272.2945478180889 -241.8272040104966 -7.958916474429298e-16)
(363.7854742548968 -258.3738812959657 4.563509608880911e-16)
(299.3489292795887 -111.4901847913442 1.017121603161902e-16)
(-26.5004821766774 -6.755652521468913 6.777973746886781e-15)
(33.85350651714881 -240.5384896661677 1.040479539826286e-14)
(1.35914571322625 -0.982454586921792 7.912223783451634e-15)
(29.26404228563402 47.06889892097569 9.494073089982687e-15)
(-2.825124129912062 2.610064270327171 1.268999888608416e-14)
(-58.24142953075278 -22.95080876517855 1.27106222246344e-14)
(277.082993389263 -243.9242775831474 -4.423835991070193e-16)
(302.0415057717886 -259.7503625657729 4.954567352666896e-16)
(354.879170450061 -253.5960883998365 5.322280623781695e-17)
(301.7344219413666 -120.8240847512017 4.371030995614621e-16)
(-16.42771568884538 -7.940209477382206 6.649490504313894e-15)
(153.9943303479873 -312.5243364680484 1.154941076130069e-14)
(43.56015826905806 -282.8943640912007 1.208281239302038e-14)
(-0.002305512755571927 -13.37820447652144 8.598974805273912e-15)
(27.60477464060079 43.85309576892585 8.512752270536364e-15)
(-4.266962730013788 3.01376831106133 1.311683208390644e-14)
(-56.75976316007862 -22.20402108693778 1.279778259133137e-14)
(274.6618673879431 -245.5217853882309 -7.350945043460214e-16)
(302.7846383512843 -266.3635993930466 4.202840852143537e-17)
(294.0893906513793 -253.993886559129 -3.754952222539928e-16)
(361.5560131524282 -258.8876454632918 1.513077260509349e-15)
(305.8348849576183 -131.1230105263342 7.532406085334467e-16)
(-9.04426388368565 -10.14493224543202 6.605267174600581e-15)
(130.4947761445025 -204.6843248000024 1.147337119047051e-14)
(154.7488702045436 -317.6314386940714 1.397491259945365e-14)
(50.58682906529202 -298.6075175756911 1.304829682260856e-14)
(-0.5429091605713809 -23.25691255304387 9.184895589335624e-15)
(27.0132726253712 42.12168025192946 9.870800142396338e-15)
(-5.729586217681033 3.799606190686717 1.355604797973871e-14)
(-55.09329503681057 -21.34758347121669 1.349560373827903e-14)
(270.2720919896261 -246.2971080436659 -1.030426877707321e-15)
(299.0006984544077 -265.9041197220565 -5.525826956944762e-16)
(289.4268506700312 -254.5359549718287 -1.902268199781046e-16)
(304.8449658238956 -263.6574109952868 1.567850609786153e-15)
(358.1213503673295 -257.9067914591812 2.030604079810676e-15)
(310.6935231215248 -142.2324635124297 1.085684264402368e-15)
(-1.217726975935058 -12.98151095785244 6.529490902638486e-15)
(126.1194527938641 -196.9331451525354 1.172227150578726e-14)
(135.1741897037805 -214.7940099369152 1.380535687923937e-14)
(153.3993990393449 -314.4148256521151 1.423348810325034e-14)
(55.75592088611096 -305.0650042314188 1.357660690889301e-14)
(-0.09173588908853145 -32.19014873382502 9.889555871415176e-15)
(26.06849665719379 39.97329126036058 9.556819084097306e-15)
(-7.722619205065146 4.524780207249314 1.410591311413155e-14)
(-53.83098069250325 -20.77680073963294 1.369467832235614e-14)
(264.9004704676276 -246.8958800973954 -9.230913295443393e-16)
(293.0468103162925 -265.7713601432969 -1.215372808496533e-15)
(285.3806150624873 -255.353711624228 2.927966828008389e-16)
(303.0829867183242 -266.2849960298512 1.378951860581089e-15)
(302.7522668382662 -261.3477266591817 2.22199033580355e-15)
(361.5056763690828 -261.759306026167 3.306463407599938e-15)
(314.8834882970914 -154.2990106941484 1.557856406751723e-15)
(5.901270864380885 -16.59145864991814 6.402814747368415e-15)
(119.8124491392687 -184.9937116207953 1.235564986229436e-14)
(126.315504988416 -197.5320060925727 1.33968035058176e-14)
(134.8775728980442 -214.7546130259934 1.405348025762683e-14)
(154.063439325772 -315.1504503400114 1.47847654945181e-14)
(62.25615671963403 -314.5426100638554 1.400499092010063e-14)
(1.400337877787577 -38.73535352088589 1.047989508450145e-14)
(25.31181980390764 37.72465716660412 1.013242330739071e-14)
(-9.789422426774431 5.489804547854883 1.45963198711415e-14)
(-52.14564441433905 -20.0480765219545 1.428059983405112e-14)
(259.6254203594321 -247.9423879651042 4.156053948556506e-16)
(286.8983343326216 -266.0488351477887 -1.989778518574442e-15)
(280.5907077240165 -256.1797205964941 9.223709271377271e-16)
(299.6125148695157 -266.8401729498186 1.306182546110304e-15)
(297.3617029524992 -261.8589640837448 2.188846841725469e-15)
(308.8864215753117 -267.2659531070175 3.414636749044538e-15)
(358.5864966130364 -261.499004803255 3.907683089944854e-15)
(319.1660966169066 -166.8854422260891 2.070632451840232e-15)
(14.60120044835026 -21.16172559608637 6.288228559030578e-15)
(114.2769022958479 -176.3328980727606 1.1687361113913e-14)
(120.4279844586823 -185.9471125804549 1.32143938301357e-14)
(126.7536798733556 -198.3108810762832 1.416631069913571e-14)
(136.2594011399377 -216.9289559473977 1.484594585645284e-14)
(153.7334334682529 -313.4808485907467 1.509978640825872e-14)
(68.32319645465786 -324.025246004984 1.449016409153084e-14)
(3.666154659097199 -45.85297535083482 1.106017022943294e-14)
(24.38982344116845 35.09262251857226 1.026150780119481e-14)
(-12.43186717028979 6.363505509544392 1.506744283608716e-14)
(-49.97196856735815 -19.13929801503193 1.444428499519736e-14)
(252.9207873387452 -248.5005491397577 -1.667765227398099e-15)
(280.9379382965382 -266.6229995913059 -2.247624769083445e-15)
(274.6654925930625 -256.2983032620439 1.167295800176609e-15)
(293.6267240101095 -266.9156390686524 6.816807727431912e-16)
(292.7455944450172 -262.0426322921761 2.202066258242781e-15)
(305.1213279902593 -268.3932645158571 3.231310307072432e-15)
(307.2292557614289 -265.6548483215579 3.882203815198779e-15)
(360.354169815573 -264.5975871297134 4.999205439419035e-15)
(323.8377647176573 -180.4031488694974 2.738131791163428e-15)
(22.76293915038149 -27.01448449379838 6.148103318899995e-15)
(109.9976392764553 -169.7992646669326 1.133569880383985e-14)
(115.5906004899769 -178.3610446237417 1.256187007118967e-14)
(120.8032717254957 -186.6273242542192 1.391066648656016e-14)
(127.4886444411925 -199.6191636702924 1.448669811019151e-14)
(136.1076916829132 -216.9893406578573 1.54242978902811e-14)
(153.5202734996082 -311.7226663959905 1.571526931193514e-14)
(76.23612271479793 -336.9315166805205 1.501852851756196e-14)
(6.613254150415546 -55.12639310523204 1.160612297200544e-14)
(22.97818583015819 31.35560357370883 1.061552987353885e-14)
(-15.2191595440236 7.297835298518347 1.54924062068897e-14)
(-47.6493562300252 -18.39874335218785 1.479429076092978e-14)
(245.9278696960102 -248.9649192559999 -5.32832208950912e-15)
(273.0875128136735 -266.6771230554943 -2.133507791725149e-15)
(269.4822958435904 -257.5614157719915 2.780915489743738e-16)
(287.5651918975191 -267.4058964856387 7.77734714788554e-16)
(287.4783502099141 -262.3876794940857 2.154463599442138e-15)
(301.3002403025307 -269.0820483626433 3.401110083816607e-15)
(301.989539439281 -266.0952965884979 3.979541136416828e-15)
(311.44575210207 -269.7671704163566 5.59348139057427e-15)
(357.7056814167081 -265.0138431059295 5.997471214348981e-15)
(329.4346361308314 -194.7587520445215 3.484092244380872e-15)
(30.60541362742259 -34.80857371560719 6.086038038004872e-15)
(106.3705961319029 -164.8729469653594 1.258996160147083e-14)
(111.5107489670314 -172.1863955157523 1.232775526830739e-14)
(115.8344242866236 -178.8154941260853 1.390521253153224e-14)
(121.7270174585827 -188.2203800257588 1.434449196550095e-14)
(127.5292612497808 -199.832323708175 1.525765130956484e-14)
(137.0271238215647 -218.8285902138194 1.61895777813417e-14)
(152.3518746409879 -308.2381757110628 1.62612187212907e-14)
(82.90853490233023 -349.7622963637414 1.564465632054673e-14)
(9.807826933863016 -69.60855440077886 1.220876988598742e-14)
(21.26722594692534 26.68973119875749 1.077986998410773e-14)
(-19.10243137197011 7.669864500572682 1.578583865001369e-14)
(-41.66468634524539 -16.15936350456197 1.460663369324829e-14)
(235.9089517574596 -250.1897041637936 -1.720671093762735e-14)
(265.1836231627331 -266.7790493543686 -8.179361623682745e-16)
(262.4881342945272 -258.0853092894537 -4.484020672463141e-16)
(281.7127063246879 -268.2240901100868 1.168843563953012e-15)
(281.8232289097369 -262.8780708539677 1.847806211895497e-15)
(295.9880288104994 -269.6159765399887 3.479930784611744e-15)
(297.7686622248589 -266.5851624619611 3.894136235635256e-15)
(306.9710526728589 -270.4467818777407 5.559710720831997e-15)
(310.2018604500244 -268.7526534926791 6.027929552750996e-15)
(358.3207388887269 -267.8660424538547 7.200675068449748e-15)
(337.2901956548183 -209.7429504568227 4.336902710368738e-15)
(45.03688643918852 -45.13114657302377 5.926278066377938e-15)
(103.1015045240047 -160.529293694786 1.256241257879802e-14)
(108.0417753666977 -167.3608335716877 1.182909023381098e-14)
(111.7736619984118 -172.6519930541589 1.408094016694233e-14)
(116.9531741667706 -180.6711060525756 1.383342819683859e-14)
(121.768308323 -188.3663570788271 1.518390755836409e-14)
(128.3901481056012 -201.4188354266887 1.593519500503024e-14)
(136.8528298524687 -218.8989662039822 1.677904410747857e-14)
(149.5577012667984 -302.4995983531179 1.716321976753817e-14)
(88.92883002687788 -361.9348148223233 1.639550890772719e-14)
(13.87108572260652 -85.74641382646219 1.289609012016336e-14)
(17.95373241067326 19.21042808498506 1.110271678452505e-14)
(-23.04043961876162 7.722621791162624 1.587799851082388e-14)
(-35.80738088637406 -14.44618486416951 1.496399292087147e-14)
(209.8479188713166 -250.5713918628873 -2.613376541449635e-14)
(253.1525004149279 -266.7402482919975 1.571038419290755e-15)
(255.6740536185957 -259.0561850294525 -2.08098310823327e-15)
(274.0691381870572 -268.4451222296756 1.913501749755494e-15)
(275.4027316232545 -263.2373559277776 1.378928375805492e-15)
(290.0912258892075 -270.1105382142191 3.779104090639564e-15)
(292.1628804506117 -266.8323416884784 3.740100869987049e-15)
(303.1171600156763 -271.1852880855406 5.820012499055223e-15)
(305.3847798090289 -269.2808708797053 6.215293305030543e-15)
(313.1181271325619 -271.8029839917384 7.65451882655574e-15)
(355.3494505934867 -268.5639530869875 8.041538726231449e-15)
(346.8211245971174 -222.9620420921854 5.246170019638491e-15)
(62.58743326831682 -58.0485812042605 5.904370570225345e-15)
(100.2918617893056 -156.2368397944813 9.361306466614976e-15)
(105.1864403942064 -163.5246473595741 1.20485738648947e-14)
(108.2784050901321 -167.7968909812656 1.444884855385985e-14)
(112.978423349011 -174.6090853914728 1.367762867454122e-14)
(116.9523514483813 -180.7340691729596 1.542855813540242e-14)
(122.7902560897097 -190.1856850284194 1.556494208959797e-14)
(128.3889782688171 -201.5594195497962 1.651901232249349e-14)
(137.8574044535679 -220.7482564687157 1.746017533376911e-14)
(145.9222825587322 -293.5749906633045 1.816752764225961e-14)
(95.20236400434958 -371.646693434394 1.726243434775169e-14)
(19.09389514752216 -105.3464757746583 1.36713762723484e-14)
(12.23732162187604 6.55602256399297 1.169354183377455e-14)
(-24.85595269750922 8.586721976185776 1.609964340174089e-14)
(-26.40538029783005 -11.66490167603205 1.418701752657652e-14)
(177.0013868582357 -240.9453428789737 -3.055212584712373e-14)
(223.2713044963858 -262.0759608621635 1.038926086020611e-14)
(244.1611218820174 -258.9593154561898 -5.646224624775053e-15)
(266.1588266716068 -268.6251182680517 3.436195332290306e-15)
(268.1181094555562 -263.6018096007392 8.184124725548756e-16)
(283.6828848568283 -270.5146582041221 4.392308313588857e-15)
(286.495877108492 -267.4113412395178 3.659843132727803e-15)
(297.7036975716622 -271.6737594568468 6.235748638532744e-15)
(301.2082076923433 -269.8948779161452 6.145421712714885e-15)
(308.795190752737 -272.4602034275085 7.71101725515521e-15)
(312.2433590576144 -271.1566673761134 8.129509320635324e-15)
(354.3693758778866 -271.052608689729 9.235015448833344e-15)
(357.9022588859773 -234.6482854250147 6.357649436687439e-15)
(84.13803315426661 -72.95428480348694 5.980273374341654e-15)
(97.49309727888229 -153.0103520714754 9.843315685221088e-15)
(102.5100148594466 -159.6972750685942 1.451327071660911e-14)
(105.3411680951399 -163.8374730915047 1.421776556427942e-14)
(109.5830106722856 -169.8786479773018 1.318642489820347e-14)
(113.01071517631 -174.7073151136507 1.54873082035076e-14)
(118.1259570935737 -182.7153425757467 1.504256554256532e-14)
(122.7871630657276 -190.27963068907 1.672844902040616e-14)
(129.2909440041436 -203.3899894826395 1.728819876727644e-14)
(137.7755751175932 -221.0743928520088 1.822160870317031e-14)
(144.3402713867325 -289.7751244512021 1.89678274954648e-14)
(99.71983182499817 -378.3426961071964 1.824222584327014e-14)
(25.5555722363457 -126.543864184013 1.456728619630298e-14)
(7.676550014472816 -6.242277488399446 1.192205635542272e-14)
(-24.98161443522033 9.898690916188837 1.633867860676335e-14)
(-17.04073801568144 -9.840264437686969 1.368435626835981e-14)
(138.2430291780002 -212.7197906013201 2.27662401046053e-15)
(188.4987014453154 -250.3478758361859 1.765927415402342e-14)
(217.2234438532775 -255.5375779935769 -8.974425872112925e-15)
(254.2690860266895 -268.7538472021574 6.637879609064032e-15)
(260.6302745342539 -264.0037487643812 5.180969112272078e-16)
(276.0948446188277 -270.7859027172358 5.04076610535837e-15)
(279.5684214204222 -267.4556007072625 3.188318882948773e-15)
(291.8639314387488 -272.164182777777 6.490953402446525e-15)
(295.6510552102631 -270.2319983569677 6.066094409027293e-15)
(304.7087823279476 -273.1073692400774 7.908294207694618e-15)
(307.7388682608239 -271.6778897728511 8.185444142488024e-15)
(314.5738984290936 -273.8386436754927 9.470196405046741e-15)
(350.6053644405977 -272.017758481836 1.033142213080353e-14)
(367.7915129187112 -243.9920441215238 7.535612580504355e-15)
(109.2642950493733 -90.19153009622343 6.250458083804746e-15)
(94.84377938620028 -149.6956186570006 9.242825806312826e-15)
(99.84453881593609 -156.2313914736527 1.469628609199755e-14)
(102.6465634655447 -159.9493259397886 1.150548144447714e-14)
(106.7548619882986 -166.0987523371369 1.332375239926174e-14)
(109.6068986782569 -169.9703198274857 1.569566343787835e-14)
(114.2332993885372 -176.759288238217 1.473765980567969e-14)
(118.1335957834051 -182.8272051222441 1.699493367222013e-14)
(123.8773442641795 -192.30234232252 1.676526387828401e-14)
(129.342380393579 -203.6607809819361 1.813680442805128e-14)
(138.5770145058617 -222.9353415400986 1.897197401148534e-14)
(143.3043752176532 -286.6073909742712 1.99209474759328e-14)
(103.7426218494214 -381.9238447174072 1.924025938501421e-14)
(33.25595014756409 -145.9260930452446 1.545068651792125e-14)
(4.336013776379773 -18.56707153036191 1.229772380967247e-14)
(-24.96002036387868 10.60990697634951 1.647004311839e-14)
(-7.630072897464001 -9.335621848666781 1.227163547299672e-14)
(121.9987247483721 -190.9971621443644 -9.708778832697104e-15)
(143.6447429946001 -217.9156625805024 8.647934058956133e-15)
(184.6019766351153 -246.1942406468723 -1.213305622765459e-14)
(224.4682716615534 -263.8455193925427 8.187977795414278e-15)
(249.001135491356 -264.124887795479 -6.535553447256223e-16)
(268.1338349867453 -270.9723717706138 4.898496316594996e-15)
(272.2973555195217 -267.8292121825971 2.852511326926691e-15)
(285.264336922159 -272.4843815521907 6.95879650062964e-15)
(289.744514663805 -270.6854496633177 5.998795176223112e-15)
(299.2405666894721 -273.5806950127115 8.058680987458435e-15)
(303.5761479528479 -272.3672258639618 8.281291283613096e-15)
(310.4913217400019 -274.4237885535798 9.600817453624853e-15)
(314.0655416407425 -273.5404339605794 1.043560214088414e-14)
(346.998448975067 -272.9167304340359 1.130811682955836e-14)
(374.2417033128303 -251.1797725037744 8.882219676410506e-15)
(134.7890299739435 -108.899498068992 6.605131047857521e-15)
(92.86371064747833 -148.2784659314085 3.712102192749789e-15)
(97.31645107059954 -153.2915123912653 1.398731127280036e-14)
(99.97312271061784 -156.5165803561001 1.106069102212357e-14)
(104.1908564184995 -162.400608963773 1.534260876466147e-14)
(106.7446359857507 -166.1140265684769 1.514584216608666e-14)
(110.9243287276202 -172.1248735848479 1.449301236164553e-14)
(114.2630696788806 -176.8721698832444 1.701582738822843e-14)
(119.3139466105242 -184.9036012618162 1.634000280090938e-14)
(123.9330107300083 -192.5640123731879 1.84293926797454e-14)
(130.2700099711698 -205.6495029187661 1.878776083380364e-14)
(138.5453767703239 -223.3364884515522 2.000300202664899e-14)
(142.979340715512 -284.8938799103973 2.06822991501352e-14)
(107.4075127422672 -383.0499280677722 2.036785887591008e-14)
(41.2477575090911 -166.0381439364947 1.649069281128629e-14)
(3.582301302515868 -29.12581741479378 1.302169416118956e-14)
(-25.99130440989239 9.959578948264824 1.684214833535661e-14)
(1.768929042042577 -11.41994540276619 1.129605803727675e-14)
(113.8531656596888 -176.8927643644466 2.975303927832509e-14)
(126.0652456089514 -197.3901376466058 1.62415291182232e-14)
(142.5336042047052 -216.6952331808404 4.636848854749814e-15)
(189.5360774502097 -252.4495259636974 1.242317821689306e-14)
(219.91014053065 -258.7087657958304 -4.032936166096164e-16)
(256.186280313587 -271.069917981488 6.486265092400615e-15)
(264.5218981863433 -268.0554121297585 3.204952544052132e-15)
(277.7323308582895 -272.7651312891934 7.407695821492853e-15)
(282.9893898480419 -270.904866979364 5.8830589493825e-15)
(293.3965680155233 -274.0834145121422 8.15317808128857e-15)
(297.9724070376283 -272.7153953043425 8.332204852566654e-15)
(306.3042787709265 -275.0810026128685 9.628557550859639e-15)
(309.9152262596799 -274.0825857519051 1.060355064172412e-14)
(315.9929305629276 -276.0071503569101 1.149141216267118e-14)
(342.413808424494 -273.2310495818667 1.252966570318504e-14)
(377.5919361191109 -256.736357678254 1.034509237258444e-14)
(158.3257390558426 -128.1923023688418 7.23902686414568e-15)
(92.87029551544299 -150.5368460408954 -2.987743671773853e-15)
(95.73759960699593 -152.7377694596576 1.249485782986324e-14)
(97.59622141185359 -153.8881581959511 1.01125794833708e-14)
(101.5787529824089 -159.0496449176401 1.491506242913141e-14)
(104.1654794660007 -162.3768461019309 1.269417162460252e-14)
(108.1842063062915 -168.4435697628988 1.503161188470791e-14)
(110.968160359244 -172.2494542434918 1.6798014965167e-14)
(115.5389490040557 -179.0488395354109 1.611761598607822e-14)
(119.4214846148633 -185.1924665849445 1.851220253581549e-14)
(125.0667524681624 -194.7278074733632 1.818801348214582e-14)
(130.3970550194289 -206.1758672654375 2.008916055325906e-14)
(139.2757423409932 -225.3207772037592 2.074233139928821e-14)
(142.6983544931921 -282.9095579973644 2.197554027641808e-14)
(110.513011703786 -382.741563862924 2.148035294405056e-14)
(49.79882870976321 -184.3207822555644 1.75604080856003e-14)
(5.147308863828396 -39.38155809120023 1.381728163298616e-14)
(-28.02637110015386 7.383500218118242 1.707725174295754e-14)
(10.71820103698079 -16.86562217948894 1.062812534088607e-14)
(109.2948928849673 -168.8971006260127 2.512959145676086e-14)
(119.2365666319242 -185.6453844760934 1.457251055506797e-15)
(125.2000593563143 -196.0164667025599 -3.962127422276092e-15)
(145.1786829757054 -220.6303765690298 7.54403207399473e-15)
(186.8320346455063 -249.0128697653554 1.281826196541678e-15)
(226.0153509938807 -266.0049983086091 6.958239399490826e-15)
(252.1598111300401 -267.5585246747358 2.50756713116107e-15)
(269.7693314262061 -272.9563082054476 7.026110379784126e-15)
(275.365142819038 -271.084700293605 5.816919123965443e-15)
(286.7988396877573 -274.4161238384584 8.299477926084685e-15)
(292.0900385603349 -273.230480488222 8.438816720826412e-15)
(300.7837760204096 -275.5392384485233 9.803190090824317e-15)
(305.6916540339903 -274.82597425086 1.078129276577821e-14)
(312.1859005297729 -276.531447841924 1.158882211918765e-14)
(315.8896107995304 -276.3131604198863 1.273422420105797e-14)
(339.7347735302936 -274.8322227277303 1.370065207995611e-14)
(378.4645644751703 -261.2567098878803 1.193006088327504e-14)
(179.6584696898949 -147.9912861840899 8.097291383430923e-15)
(92.9067971725845 -147.9866287166507 1.438228708657728e-14)
(96.22565333442948 -155.7960513915172 1.39478906920862e-14)
(96.0965731361575 -153.3372985036318 7.965434993597813e-15)
(99.11854478933422 -156.2269233474865 1.497657237547897e-14)
(101.5514244862994 -159.0371152848124 1.239491514368217e-14)
(105.6895204977178 -164.8463098569433 1.642220041698479e-14)
(108.2018677805581 -168.5153916118677 1.586790700172147e-14)
(112.3242125303407 -174.5161528980422 1.612321451900611e-14)
(115.6500050325039 -179.3283787483732 1.838584357829696e-14)
(120.6487246375222 -187.4329545888748 1.804376682290249e-14)
(125.2601770747586 -195.2838665243983 2.017484333174934e-14)
(131.3483498681063 -208.3355196438684 2.060161812676115e-14)
(139.2638784364743 -225.9186454198721 2.215280598088577e-14)
(142.7444070229939 -281.9604907267088 2.290995721860503e-14)
(113.7583805329202 -381.4141457210366 2.282171841308393e-14)
(58.92802656410548 -202.5460028460187 1.880276668136683e-14)
(7.00971844299819 -53.37777686000652 1.477699263267402e-14)
(-30.81997241087907 2.982817255160922 1.730353336505356e-14)
(22.63312423653453 -25.49020099822019 1.032859794895628e-14)
(105.8142867134438 -162.4069174702262 1.474513269046691e-14)
(115.0118196940683 -177.7277562329733 -1.571073872948482e-15)
(117.6906925673826 -183.1738298522683 1.721948257411769e-14)
(127.9228000741538 -200.2401266049706 1.693162399413936e-14)
(144.4475048615775 -219.5394228429871 6.626673322567995e-15)
(191.0968697158195 -254.5625396139756 9.39376946598419e-15)
(222.957033986842 -262.3529231167102 4.806358968979184e-15)
(257.7757227995569 -273.0774858589792 7.260261173919884e-15)
(267.4674362554986 -271.1836275146451 6.318189517846124e-15)
(279.3034110447919 -274.7017183250072 8.165756891184183e-15)
(285.3838198566996 -273.51256585783 8.536421051861481e-15)
(294.9112546072389 -276.0384362330784 9.937403665500069e-15)
(300.0261241136802 -275.1769439448105 1.089426372739479e-14)
(307.8291065727162 -277.2024592458937 1.164706795589302e-14)
(311.8401274873704 -276.5745595988379 1.294276384339432e-14)
(317.3617932298638 -278.4858853917565 1.40966449884742e-14)
(336.4902118861824 -276.2723593745068 1.49482526609395e-14)
(377.9519131301849 -265.1149080880975 1.3611384209927e-14)
(198.3664758486291 -167.7242896705158 9.23666062177589e-15)
(90.57554788522681 -139.835598545303 1.485678954413495e-14)
(96.64314170516509 -154.4188397112281 1.833024346228647e-14)
(96.36272718077616 -156.0174968482078 1.155103779135662e-14)
(97.69288531454917 -155.9080686356656 1.512722729433141e-14)
(99.34251926761036 -156.6601706997797 1.11005412582047e-14)
(103.1893437278366 -161.6461656031251 1.587704814296994e-14)
(105.6969916721666 -164.8832095343438 1.414830734490256e-14)
(109.6747427534837 -170.9289177491684 1.667637466615618e-14)
(112.4706020229636 -174.8236014975498 1.798189754371943e-14)
(116.9995071879393 -181.6766215873103 1.785052208222511e-14)
(120.8878193950146 -188.0051808667502 2.004736143925718e-14)
(126.4166932836251 -197.6195871343266 2.032727921556975e-14)
(131.6162814394591 -209.2481628824368 2.212852219884668e-14)
(139.9228347092053 -228.0171475818309 2.305725841187788e-14)
(142.8939011445989 -280.5416734357343 2.446944964428106e-14)
(116.8904886503787 -379.3089295046458 2.423090286641799e-14)
(68.45271696992717 -218.3745160110985 2.017352878011624e-14)
(9.129213503716622 -70.50798163024731 1.584877665908983e-14)
(-32.34522948477661 -1.527759314994137 1.778234318234532e-14)
(36.48668512038014 -36.59304560416932 1.041843563817795e-14)
(103.638954469682 -157.3158617503362 2.249333115173451e-14)
(111.2219504348419 -170.5163868880822 -6.278725868479276e-15)
(113.473822278789 -175.3392594331998 1.647943759555367e-14)
(121.1760743060942 -188.5927356934771 3.243116578925531e-15)
(127.2523654476908 -199.1602194384043 -8.286444026546227e-16)
(146.8821680922107 -223.2082474509802 5.29068281501745e-15)
(188.9343551573472 -251.8141427047983 9.034040501737753e-16)
(227.5737912634127 -267.8369986771468 4.768325779657185e-15)
(254.9539657923093 -270.7035191334423 6.702847951827679e-15)
(271.3587549505468 -274.8924135314689 8.462179960673545e-15)
(277.7878205612041 -273.724522316823 9.012192234644553e-15)
(288.3569876169357 -276.4023176232172 9.860082281198502e-15)
(294.14588545775 -275.6828338136795 1.107157870950121e-14)
(302.3259446359489 -277.6817686311828 1.175285888929704e-14)
(307.6729992024509 -277.476967813941 1.302261068935824e-14)
(313.7574655442235 -278.8418197645955 1.421198064643041e-14)
(317.5543469829971 -279.2473181858285 1.528530494034155e-14)
(333.9643216051003 -278.1611367723102 1.638100774753664e-14)
(376.1878215847904 -268.6292762944275 1.545615511263754e-14)
(214.0527433913261 -186.6970156420331 1.060143785689152e-14)
(83.32949495757632 -127.4533907035238 -1.469432377439512e-16)
(93.40869750825883 -145.3545539876995 1.44689348281719e-14)
(96.73154033173125 -154.0915429511921 1.167370192039426e-14)
(98.38547397279973 -159.2131636737239 1.179766102890153e-14)
(97.99263168337613 -156.3743513105608 9.584276562409013e-15)
(100.8205855435758 -158.9530642149378 1.624720504206913e-14)
(103.235361757735 -161.7414003828709 1.390938105577807e-14)
(107.2845990778657 -167.4628281237645 1.748389544293431e-14)
(109.8011999743402 -171.1908517097513 1.704418763064091e-14)
(113.8946611897836 -177.2488997151582 1.809310455327194e-14)
(117.2654296890044 -182.2592125833157 1.980456413184108e-14)
(122.1889449201537 -190.4369722101161 2.014106662107447e-14)
(126.7792598558365 -198.5679909153982 2.203862002254483e-14)
(132.6112951855063 -211.6490402292408 2.29695800559984e-14)
(139.9818555756822 -229.0011906210486 2.466290688701628e-14)
(143.1559268948578 -280.0921114645407 2.568907697235313e-14)
(119.842400251929 -376.4912976829692 2.587940132684845e-14)
(78.30269163800921 -232.119219276582 2.17007008585995e-14)
(12.99264192344243 -87.88811062375234 1.710866286110199e-14)
(-31.51610654408734 -5.907720138589196 1.841928588511155e-14)
(51.68636084630897 -49.75409746000751 1.072490977555722e-14)
(101.9226220721633 -152.6102295236759 5.286131904877197e-15)
(108.0353276400694 -163.8710690375178 -2.407029805382409e-15)
(110.0647955885683 -168.7717593405262 1.952180079502013e-14)
(117.0016972845797 -180.794508597794 -2.824388854813109e-15)
(119.9647226039502 -186.7036396615875 1.30697350388101e-14)
(129.8440443960206 -203.1723213345568 1.365121695361525e-14)
(146.3365189100839 -222.3320958053849 1.087643838173456e-14)
(192.5630596568566 -256.7444279548253 1.034304301560704e-14)
(225.3770398862173 -265.3727311196579 8.798097158945815e-15)
(259.3122024860721 -275.0280890125054 8.410685401043487e-15)
(269.8379189211612 -273.8207273245256 9.015133137124591e-15)
(280.9006200078217 -276.6731939932329 9.851453848034199e-15)
(287.4507682648223 -276.0079254190118 1.125995248507218e-14)
(296.4305116464021 -278.1726548319944 1.186308710059908e-14)
(301.9527517802322 -277.8168974027418 1.314491393579839e-14)
(309.2231408014874 -279.6129515233872 1.431075298589685e-14)
(313.9671080597599 -279.4117705756216 1.545241103339299e-14)
(318.6683608257986 -281.2476450741129 1.697458270973821e-14)
(331.3294596967882 -279.7747321023533 1.804790657726097e-14)
(373.5376846336166 -271.9826698888241 1.737309590983137e-14)
(226.3542137406127 -204.2196478818755 1.217240673689676e-14)
(77.73025342711509 -122.9634764414976 1.587252515609832e-14)
(85.01812106085087 -130.143962704021 2.035649674916931e-14)
(93.53683176274671 -145.3857279755088 1.444789761677534e-14)
(98.81035611547317 -157.701141845262 1.824448767135967e-14)
(98.39847128911138 -159.4229866516361 1.365992349683935e-14)
(99.48399769152265 -158.7475495483919 1.70412978467859e-14)
(101.1356893851083 -159.490602962644 1.293044405266325e-14)
(104.8749453570192 -164.3851111715853 1.716290228149721e-14)
(107.4223485442564 -167.7257150812183 1.583052839552707e-14)
(111.3491257506441 -173.7576841515405 1.85796679142169e-14)
(114.1938295040418 -177.8319367646349 1.924156272500304e-14)
(118.6854398458997 -184.7987608373399 2.01787225431903e-14)
(122.6147872794 -191.400495154666 2.18361495261913e-14)
(128.0107723174061 -201.1517626421576 2.278501189973159e-14)
(133.0694728717447 -213.0528830827099 2.455318900384901e-14)
(140.5628517783985 -231.210080338373 2.593896422395953e-14)
(143.4442966297916 -279.1837798072501 2.748313013702897e-14)