# Region type :         patch inlet
# Faces                 : 34
# Area                  : 2.1999999999999997e-01
# Scale factor          : 1.0000000000000000e+00
# Time                  	areaAverage(p)
12600                   	7.4017188527697683e+04
