# Ma  POINT_DATA 302
# x  y  z  Ma
0 0 0 0.66193327423327
0.02 0 0 0.6619229711382275
0.02 0 1 0.6619229711382275
0 0 1 0.66193327423327
0.04 0 0 0.6618918755695494
0.04 0 1 0.6618918755695494
0.06 0 0 0.6618400306611438
0.06 0 1 0.6618400306611438
0.08 0 0 0.661766860036931
0.08 0 1 0.661766860036931
0.1 0 0 0.6616716282573971
0.1 0 1 0.6616716282573971
0.12 0 0 0.6615536614992368
0.12 0 1 0.6615536614992368
0.14 0 0 0.6614120523592124
0.14 0 1 0.6614120523592124
0.16 0 0 0.6612456716217607
0.16 0 1 0.6612456716217607
0.18 0 0 0.66105319556928
0.18 0 1 0.66105319556928
0.2 0 0 0.660833093215287
0.2 0 1 0.660833093215287
0.22 0 0 0.6605836020815961
0.22 0 1 0.6605836020815961
0.24 0 0 0.6603027087365488
0.24 0 1 0.6603027087365488
0.26 0 0 0.6599881270618466
0.26 0 1 0.6599881270618466
0.28 0 0 0.6596372723093975
0.28 0 1 0.6596372723093975
0.3 0 0 0.6592472317031981
0.3 0 1 0.6592472317031981
0.32 0 0 0.6588147301282218
0.32 0 0.9999999999999999 0.6588147301282218
0.34 0 0 0.6583360901934505
0.34 0 1 0.6583360901934505
0.36 0 0 0.657807185873827
0.36 0 1 0.657807185873827
0.3800000000000001 0 0 0.6572233885359451
0.3800000000000001 0 1 0.6572233885359451
0.4000000000000001 0 0 0.6565795039234914
0.4000000000000001 0 1 0.6565795039234914
0.42 0 0 0.6558696983629061
0.42 0 1 0.6558696983629061
0.44 0 0 0.6550874120103072
0.44 0 1 0.6550874120103072
0.46 0 0 0.6542252564096821
0.46 0 1 0.6542252564096821
0.48 0 0 0.6532748929207907
0.48 0 1 0.6532748929207907
0.5 0 0 0.6522268876413121
0.5 0 1 0.6522268876413121
0.52 0 0 0.6510705372137437
0.52 0 1 0.6510705372137437
0.54 0 0 0.6497936582601733
0.54 0 1 0.6497936582601733
0.5600000000000001 0 0 0.6483823309639133
0.5600000000000001 0 1 0.6483823309639133
0.58 0 0 0.6468205842789516
0.58 0 1 0.6468205842789516
0.6 0 0 0.645090006046304
0.6 0 1 0.645090006046304
0.62 0 0 0.6431692554072075
0.62 0 1 0.6431692554072075
0.64 0 0 0.6410334465138301
0.64 0 1 0.6410334465138301
0.66 0 0 0.6386533604307054
0.66 0 1 0.6386533604307054
0.68 0 0 0.6359944238280879
0.68 0 1 0.6359944238280879
0.6999999999999998 0 0 0.6330153654065656
0.6999999999999998 0 1 0.6330153654065656
0.7200000000000001 0 0 0.6296664142394619
0.7200000000000001 0 1 0.6296664142394619
0.7399999999999999 0 0 0.6258868344070097
0.7399999999999999 0 1 0.6258868344070097
0.7600000000000001 0 0 0.6216015120494878
0.7600000000000001 0 1 0.6216015120494878
0.7799999999999999 0 0 0.6167160974541626
0.7799999999999999 0 1 0.6167160974541626
0.8000000000000002 0 0 0.6111097729723207
0.8000000000000002 0 1 0.6111097729723207
0.82 0 0 0.6046244159541287
0.82 0 1 0.6046244159541287
0.84 0 0 0.5970465884487259
0.84 0 1 0.5970465884487259
0.86 0 0 0.5880803275926092
0.86 0 1 0.5880803275926092
0.88 0 0 0.5772945433175912
0.88 0 1 0.5772945433175912
0.9 0 0 0.5640354305391477
0.9 0 1 0.5640354305391477
0.92 0 0 0.5471711587860757
0.92 0 1 0.5471711587860757
0.9399999999999999 0 0 0.5248760784138659
0.9399999999999999 0 1 0.5248760784138659
0.96 0 0 0.4933857187408061
0.96 0 1 0.4933857187408061
0.98 0 0 0.4464834708459898
0.98 0 1 0.4464834708459898
1 0 0 0.4110882900432705
1 0 1 0.4110882900432705
1.019011528859521 0.00774587170892227 0 0.4518289610734656
1.019011528859521 0.00774587170892227 1 0.4518289610734656
1.03814300222908 0.01519056678779096 0 0.5337669539393972
1.03814300222908 0.01519056678779096 1 0.5337669539393972
1.057389649276656 0.02233222874657104 0 0.5889565494539606
1.057389649276656 0.02233222874657104 1 0.5889565494539606
1.076746670449271 0.02916907666285784 0 0.6290318820067268
1.076746670449271 0.02916907666285784 1 0.6290318820067268
1.096209238669852 0.03569940562598783 0 0.6651958890061491
1.096209238669852 0.03569940562598783 1 0.6651958890061491
1.115772500540971 0.04192158716219385 0 0.6986289656783982
1.115772500540971 0.04192158716219385 1 0.6986289656783982
1.135431577555136 0.04783406964069692 0 0.7300721406708883
1.135431577555136 0.04783406964069692 1 0.7300721406708883
1.15518156731135 0.05343537866064074 0 0.7598772843156307
1.15518156731135 0.05343537866064074 1 0.7598772843156306
1.175017544737629 0.05872411741876205 0 0.7882944261805847
1.175017544737629 0.05872411741876205 1 0.7882944261805847
1.194934563319166 0.06369896705771372 0 0.8157498405298237
1.194934563319166 0.06369896705771372 1 0.8157498405298237
1.214927656331854 0.06835868699494907 0 0.8424621372174474
1.214927656331854 0.06835868699494907 1 0.8424621372174474
1.234991838080839 0.07270211523208703 0 0.8684849683653826
1.234991838080839 0.07270211523208703 1 0.8684849683653826
1.255122105143807 0.07672816864468057 0 0.8939684493248349
1.255122105143807 0.07672816864468057 1 0.893968449324835
1.275313437618693 0.08043584325231667 0 0.9190200146361798
1.275313437618693 0.08043584325231667 1 0.9190200146361798
1.295560800375496 0.08382421446897959 0 0.9436909672629828
1.295560800375496 0.08382421446897959 1 0.943690967262983
1.315859144311896 0.08689243733361551 0 0.9680274528676232
1.315859144311896 0.08689243733361551 0.9999999999999999 0.968027452867623
1.336203407612353 0.08963974672084118 0 0.9920721197375479
1.336203407612353 0.08963974672084118 1 0.9920721197375479
1.356588517010376 0.09206545753174478 0 1.015869014953839
1.356588517010376 0.09206545753174478 1 1.015869014953839
1.377009389053645 0.09416896486472859 0 1.039457521945236
1.377009389053645 0.09416896486472859 1 1.039457521945236
1.39746093137168 0.09594974416635349 0 1.062865867356093
1.39746093137168 0.09594974416635349 1 1.062865867356093
1.417938043945728 0.09740735136214917 0 1.08612001426404
1.417938043945728 0.09740735136214917 1 1.08612001426404
1.438435620380559 0.09854142296735158 0 1.109241142637762
1.438435620380559 0.09854142296735158 1 1.109241142637762
1.458948549177853 0.0993516761775457 0 1.132244422921916
1.458948549177853 0.0993516761775457 1 1.132244422921916
1.479471715010857 0.09983790893918965 0 1.155138978666775
1.479471715010857 0.09983790893918965 1 1.155138978666775
1.5 0.1000000000000001 0 1.1779311573198
1.5 0.1000000000000001 1 1.1779311573198
1.520528284989143 0.09983790893918965 0 1.200621996451235
1.520528284989143 0.09983790893918965 1 1.200621996451235
1.541051450822147 0.0993516761775457 0 1.223209580630459
1.541051450822147 0.0993516761775457 1 1.223209580630459
1.561564379619441 0.09854142296735158 0 1.245668457802164
1.561564379619441 0.09854142296735158 1 1.245668457802164
1.582061956054272 0.09740735136214917 0 1.268010683035252
1.582061956054272 0.09740735136214917 1 1.268010683035252
1.60253906862832 0.09594974416635349 0 1.29014717452375
1.60253906862832 0.09594974416635349 1 1.29014717452375
1.622990610946355 0.09416896486472837 0 1.311966563017259
1.622990610946355 0.09416896486472837 1 1.311966563017259
1.643411482989624 0.09206545753174478 0 1.334065634948676
1.643411482989624 0.09206545753174478 1 1.334065634948676
1.663796592387647 0.08963974672084141 0 1.353557672708655
1.663796592387647 0.08963974672084141 1 1.353557672708655
1.684140855688104 0.08689243733361551 0 1.374730780927877
1.684140855688104 0.08689243733361551 1 1.374730780927877
1.704439199624504 0.08382421446897959 0 1.092490548894703
1.704439199624504 0.08382421446897959 1 1.092490548894703
1.724686562381307 0.08043584325231667 0 0.7872664157835075
1.724686562381307 0.08043584325231667 1 0.7872664157835076
1.744877894856193 0.07672816864468035 0 0.7817255975412961
1.744877894856192 0.07672816864468035 1 0.7817255975412961
1.76500816191916 0.07270211523208703 0 0.7833146673182743
1.765008161919161 0.07270211523208703 1 0.7833146673182744
1.785072343668146 0.06835868699494907 0 0.7715133199750573
1.785072343668146 0.06835868699494907 1 0.7715133199750572
1.805065436680834 0.06369896705771372 0 0.7520503836487349
1.805065436680834 0.06369896705771372 1 0.7520503836487349
1.824982455262371 0.05872411741876182 0 0.7295164352224742
1.824982455262371 0.05872411741876182 1 0.7295164352224742
1.84481843268865 0.05343537866064074 0 0.7042424889332111
1.84481843268865 0.05343537866064074 1 0.7042424889332111
1.864568422444864 0.04783406964069692 0 0.6763604607822327
1.864568422444864 0.04783406964069692 1 0.6763604607822327
1.884227499459029 0.04192158716219363 0 0.646063163747818
1.884227499459029 0.04192158716219363 1 0.646063163747818
1.903790761330148 0.03569940562598806 0 0.6132401184032616
1.903790761330148 0.03569940562598806 1 0.6132401184032616
1.923253329550729 0.02916907666285784 0 0.5771945842019798
1.923253329550729 0.02916907666285784 1 0.5771945842019798
1.942610350723344 0.02233222874657081 0 0.5370923801305035
1.942610350723344 0.02233222874657081 1 0.5370923801305035
1.96185699777092 0.01519056678779096 0 0.4904111375412353
1.96185699777092 0.01519056678779096 1 0.4904111375412354
1.980988471140479 0.00774587170892227 0 0.4374241232852719
1.980988471140479 0.00774587170892227 1 0.4374241232852719
2 0 0 0.3889892916571797
2 0 1 0.3889892916571797
2.02 0 0 0.3971409993162454
2.02 0 1 0.3971409993162454
2.04 0 0 0.446585504600764
2.04 0 1 0.446585504600764
2.06 0 0 0.4762634116239787
2.06 0 1 0.4762634116239787
2.08 0 0 0.4933207510209313
2.08 0 1 0.4933207510209313
2.1 0 0 0.5074202957076002
2.1 0 1 0.5074202957076002
2.12 0 0 0.5192022339321827
2.12 0 1 0.5192022339321827
2.14 0 0 0.5291530322950724
2.14 0 1 0.5291530322950724
2.16 0 0 0.5376479654604549
2.16 0 1 0.5376479654604549
2.18 0 0 0.5449782191411074
2.18 0 1 0.5449782191411074
2.2 0 0 0.5513686531272506
2.2 0 1 0.5513686531272506
2.22 0 0 0.5569989974434013
2.22 0 1 0.5569989974434013
2.24 0 0 0.5620098234055564
2.24 0 1 0.5620098234055564
2.26 0 0 0.566473914699413
2.26 0 1 0.566473914699413
2.28 0 0 0.5704889924155608
2.28 0 1 0.5704889924155608
2.3 0 0 0.57412950054612
2.3 0 1 0.57412950054612
2.32 0 0 0.5773969048423645
2.32 0 0.9999999999999999 0.5773969048423645
2.34 0 0 0.5803211900653275
2.34 0 1 0.5803211900653275
2.36 0 0 0.5829376884305171
2.36 0 1 0.5829376884305171
2.38 0 0 0.5852790815066242
2.38 0 1 0.5852790815066242
2.4 0 0 0.5873764056987203
2.4 0 1 0.5873764056987203
2.42 0 0 0.5892581801535921
2.42 0 1 0.5892581801535921
2.44 0 0 0.5909499623311049
2.44 0 1 0.5909499623311049
2.46 0 0 0.5924746409683369
2.46 0 1 0.5924746409683369
2.48 0 0 0.5938521801359755
2.48 0 1 0.5938521801359755
2.5 0 0 0.5950997045666312
2.5 0 1 0.5950997045666312
2.52 0 0 0.5962320275621789
2.52 0 1 0.5962320275621789
2.54 0 0 0.5972620342163635
2.54 0 1 0.5972620342163635
2.56 0 0 0.5982009548926834
2.56 0 1 0.5982009548926834
2.58 0 0 0.5990586067588399
2.58 0 1 0.5990586067588399
2.6 0 0 0.599843607134916
2.6 0 1 0.599843607134916
2.62 0 0 0.6005635536647738
2.62 0 1 0.6005635536647738
2.64 0 0 0.6012251749146317
2.64 0 1 0.6012251749146317
2.66 0 0 0.6018344525899104
2.66 0 1 0.6018344525899104
2.68 0 0 0.6023967563778578
2.68 0 1 0.6023967563778578
2.7 0 0 0.6029169622276507
2.7 0 1 0.6029169622276507
2.72 0 0 0.6033994407459132
2.72 0 1 0.6033994407459132
2.74 0 0 0.6038481315068085
2.74 0 1 0.6038481315068085
2.76 0 0 0.6042666485693926
2.76 0 1 0.6042666485693926
2.78 0 0 0.6046582738152096
2.78 0 1 0.6046582738152096
2.8 0 0 0.6050259796248247
2.8 0 1 0.6050259796248247
2.82 0 0 0.6053724390189168
2.82 0 1 0.6053724390189168
2.84 0 0 0.6056999904270495
2.84 0 1 0.6056999904270495
2.86 0 0 0.6060105403797444
2.86 0 1 0.6060105403797444
2.88 0 0 0.6063052540588776
2.88 0 1 0.6063052540588776
2.9 0 0 0.6065842593756605
2.9 0 1 0.6065842593756605
2.92 0 0 0.6068453911348458
2.92 0 1 0.6068453911348458
2.94 0 0 0.6070855381395002
2.94 0 1 0.6070855381395002
2.96 0 0 0.6072845188069613
2.96 0 1 0.6072845188069613
2.98 0 0 0.6075558302358104
2.98 0 1 0.6075558302358104
3 0 0 0.6077427003338307
3 0 1 0.6077427003338307
