# Ma  POINT_DATA 302
# x  y  z  Ma
0 1 0 0.6675811373532543
0 1 1 0.6675811373532543
0.02 1 1 0.6675907595572548
0.02 1 0 0.6675907595572548
0.04 1 1 0.6676195738477594
0.04 1 0 0.6676195738477594
0.06 1 1 0.6676678929743287
0.06 1 0 0.6676678929743287
0.08 1 1 0.6677360214205276
0.08 1 0 0.6677360214205276
0.1 1 1 0.6678244882415765
0.1 1 0 0.6678244882415765
0.12 1 1 0.6679338253308571
0.12 1 0 0.6679338253308571
0.14 1 1 0.6680647143881915
0.14 1 0 0.6680647143881915
0.16 1 1 0.6682179842832322
0.16 0.9999999999999999 0 0.6682179842832322
0.18 1 1 0.6683946024719876
0.18 1 0 0.6683946024719876
0.2 1 1 0.6685956760383682
0.2 1 0 0.6685956760383682
0.22 1 1 0.6688224531650255
0.22 1 0 0.6688224531650255
0.24 1 1 0.6690763333755783
0.24 1 0 0.6690763333755783
0.26 1 1 0.6693588723713771
0.26 1 0 0.6693588723713771
0.28 1 1 0.6696717875645868
0.28 1 0 0.6696717875645868
0.3 1 1 0.6700169636647396
0.3 1 0 0.6700169636647396
0.32 1 1 0.6703964585429842
0.32 1 0 0.6703964585429842
0.34 1 1 0.670812509263069
0.34 1 0 0.670812509263069
0.36 1 1 0.6712675380843538
0.36 1 0 0.6712675380843538
0.3800000000000001 1 1 0.671764158350548
0.3800000000000001 1 0 0.671764158350548
0.4000000000000001 1 1 0.6723051801318937
0.4000000000000001 1 0 0.6723051801318937
0.42 1 1 0.6728936154590219
0.42 1 0 0.6728936154590219
0.44 1 1 0.6735326829777517
0.44 1 0 0.6735326829777517
0.46 1 1 0.674225811835129
0.46 1 0 0.674225811835129
0.48 1 1 0.6749766445865917
0.48 1 0 0.6749766445865917
0.5 1 1 0.6757890388955961
0.5 1 0 0.6757890388955961
0.52 1 1 0.6766670677790466
0.52 1 0 0.6766670677790466
0.54 1 1 0.6776150181352283
0.54 1 0 0.6776150181352283
0.5600000000000001 1 1 0.6786373872767102
0.5600000000000001 1 0 0.6786373872767102
0.58 1 1 0.6797388771796963
0.58 1 0 0.6797388771796963
0.6 1 1 0.6809243861544084
0.6 1 0 0.6809243861544084
0.62 1 1 0.68219899763928
0.62 1 0 0.68219899763928
0.64 1 1 0.6835679658258971
0.64 1 0 0.6835679658258971
0.66 1 1 0.6850366978325582
0.66 1 0 0.6850366978325582
0.68 1 1 0.686610732162672
0.68 1 0 0.686610732162672
0.6999999999999998 1 1 0.6882957132103658
0.6999999999999998 1 0 0.6882957132103658
0.7200000000000001 1 1 0.6900973616096733
0.7200000000000001 1 0 0.6900973616096733
0.7399999999999999 1 1 0.6920214402652334
0.7399999999999999 1 0 0.6920214402652334
0.7600000000000001 1 1 0.6940737159502817
0.7600000000000001 1 0 0.6940737159502817
0.7799999999999999 1 1 0.6962599164122315
0.7799999999999999 1 0 0.6962599164122315
0.8000000000000002 1 1 0.6985856829782884
0.8000000000000002 1 0 0.6985856829782884
0.82 1 1 0.7010565187306508
0.82 1 0 0.7010565187306508
0.84 1 1 0.7036777323042648
0.84 1 0 0.7036777323042648
0.86 1 1 0.7064543777133132
0.86 1 0 0.7064543777133132
0.88 1 1 0.7093911895838969
0.88 1 0 0.7093911895838969
0.9 1 1 0.7124925172662506
0.9 1 0 0.7124925172662506
0.92 1 1 0.7157622486944647
0.92 1 0 0.7157622486944647
0.9399999999999999 1 1 0.7192037517996199
0.9399999999999999 1 0 0.7192037517996199
0.96 1 1 0.7228198215568478
0.96 1 0 0.7228198215568478
0.98 1 1 0.7266123467770869
0.98 1 0 0.7266123467770869
1 1 1 0.7305840700414075
1 1 0 0.7305840700414075
1.02 1 1 0.7347313838657787
1.02 1 0 0.7347313838657787
1.04 1 1 0.7390546847159691
1.04 1 0 0.7390546847159691
1.06 1 1 0.7435561697304671
1.06 1 0 0.7435561697304671
1.08 1 1 0.7482299624160191
1.08 1 0 0.7482299624160191
1.1 1 1 0.7530718577045512
1.1 1 0 0.7530718577045512
1.12 1 1 0.7580761633396449
1.12 1 0 0.7580761633396449
1.14 1 1 0.7632351880102686
1.14 1 0 0.7632351880102686
1.16 1 1 0.7685394531530876
1.16 0.9999999999999999 0 0.7685394531530876
1.18 1 1 0.7739773052341318
1.18 1 0 0.7739773052341318
1.2 1 1 0.77953461960631
1.2 1 0 0.77953461960631
1.22 1 1 0.7851944483814987
1.22 1 0 0.7851944483814987
1.24 1 1 0.7909363522437929
1.24 1 0 0.7909363522437929
1.26 1 1 0.7967347469441401
1.26 1 0 0.7967347469441401
1.28 1 1 0.8025575699032395
1.28 1 0 0.8025575699032395
1.3 1 1 0.8083715797219669
1.3 1 0 0.8083715797219669
1.32 1 1 0.8141395784195672
1.32 1 0 0.8141395784195672
1.34 1 1 0.8198144546884346
1.34 1 0 0.8198144546884346
1.36 1 1 0.8253408077084035
1.36 1 0 0.8253408077084035
1.38 1 1 0.8306541299009057
1.38 1 0 0.8306541299009057
1.4 1 1 0.8356808614375323
1.4 1 0 0.8356808614375323
1.42 1 1 0.8403382389393497
1.42 1 0 0.8403382389393497
1.44 1 1 0.844534671737281
1.44 1 0 0.844534671737281
1.46 1 1 0.8481723163945183
1.46 1 0 0.8481723163945183
1.48 1 1 0.8511518343493079
1.48 1 0 0.8511518343493079
1.5 1 1 0.8533788557709194
1.5 1 0 0.8533788557709194
1.52 1 1 0.8547775481181303
1.52 1 0 0.8547775481181303
1.54 1 1 0.8552587614636709
1.54 1 0 0.8552587614636709
1.56 1 1 0.8548304469573058
1.56 1 0 0.8548304469573058
1.58 1 1 0.8534779989489121
1.58 1 0 0.8534779989489121
1.6 1 1 0.8511911735000365
1.6 1 0 0.8511911735000365
1.62 1 1 0.8480598032053768
1.62 1 0 0.8480598032053768
1.64 1 1 0.8441674100459028
1.64 1 0 0.8441674100459028
1.66 1 1 0.8396308372535259
1.66 1 0 0.8396308372535259
1.68 1 1 0.8345644851235663
1.68 1 0 0.8345644851235663
1.7 1 1 0.829085902997142
1.7 1 0 0.829085902997142
1.72 1 1 0.8233031588088748
1.72 1 0 0.8233031588088748
1.74 1 1 0.8173142154722394
1.74 1 0 0.8173142154722394
1.76 1 1 0.8112044979246487
1.76 1 0 0.8112044979246487
1.78 1 1 0.8050504744821046
1.78 1 0 0.8050504744821046
1.8 1 1 0.7989123664704727
1.8 1 0 0.7989123664704727
1.82 1 1 0.7928333312329023
1.82 1 0 0.7928333312329023
1.84 1 1 0.7868505040084013
1.84 1 0 0.7868505040084013
1.86 1 1 0.7809954566067367
1.86 1 0 0.7809954566067367
1.88 1 1 0.7752928008949462
1.88 1 0 0.7752928008949462
1.9 1 1 0.7697611866805103
1.9 1 0 0.7697611866805103
1.92 1 1 0.7644143885663555
1.92 1 0 0.7644143885663555
1.94 1 1 0.7592622402423567
1.94 1 0 0.7592622402423567
1.96 1 1 0.7543112164977952
1.96 1 0 0.7543112164977952
1.98 1 1 0.7495652524375085
1.98 1 0 0.7495652524375085
2 1 1 0.7450248959121262
2 1 0 0.7450248959121262
2.02 1 1 0.7406920863376343
2.02 1 0 0.7406920863376343
2.04 1 1 0.7365654967007109
2.04 1 0 0.7365654967007109
2.06 1 1 0.732640592233075
2.06 1 0 0.732640592233075
2.08 1 1 0.7289149189484252
2.08 1 0 0.7289149189484252
2.1 1 1 0.7253839571628434
2.1 1 0 0.7253839571628434
2.12 1 1 0.7220426108830819
2.12 1 0 0.7220426108830819
2.14 1 1 0.7188852750857533
2.14 1 0 0.7188852750857533
2.16 1 1 0.7159059490937896
2.16 0.9999999999999999 0 0.7159059490937896
2.18 1 1 0.713098321660415
2.18 1 0 0.713098321660415
2.2 1 1 0.7104558485388223
2.2 1 0 0.7104558485388223
2.22 1 1 0.707971821992851
2.22 1 0 0.707971821992851
2.24 1 1 0.7056394327495299
2.24 1 0 0.7056394327495299
2.26 1 1 0.7034518249230984
2.26 1 0 0.7034518249230984
2.28 1 1 0.7014021445030751
2.28 1 0 0.7014021445030751
2.3 1 1 0.6994835819478569
2.3 1 0 0.6994835819478569
2.32 1 1 0.6976894093675974
2.32 1 0 0.6976894093675974
2.34 1 1 0.6960130128395823
2.34 1 0 0.6960130128395823
2.36 1 1 0.6944479204287061
2.36 1 0 0.6944479204287061
2.38 1 1 0.692987826867669
2.38 1 0 0.692987826867669
2.4 1 1 0.6916266134805031
2.4 1 0 0.6916266134805031
2.42 1 1 0.6903583542905236
2.42 1 0 0.6903583542905236
2.44 1 1 0.6891773300438586
2.44 1 0 0.6891773300438586
2.46 1 1 0.6880780447988958
2.46 1 0 0.6880780447988958
2.48 1 1 0.6870552283367721
2.48 1 0 0.6870552283367721
2.5 1 1 0.6861038388406115
2.5 1 0 0.6861038388406115
2.52 1 1 0.6852190633515198
2.52 1 0 0.6852190633515198
2.54 1 1 0.684396316361242
2.54 1 0 0.684396316361242
2.56 1 1 0.6836312366556372
2.56 1 0 0.6836312366556372
2.58 1 1 0.682919682621518
2.58 1 0 0.682919682621518
2.6 1 1 0.6822577262450051
2.6 1 0 0.6822577262450051
2.62 1 1 0.6816416460310015
2.62 1 0 0.6816416460310015
2.64 1 1 0.6810679190894458
2.64 1 0 0.6810679190894458
2.66 1 1 0.6805332126712003
2.66 1 0 0.6805332126712003
2.68 1 1 0.6800343754356537
2.68 1 0 0.6800343754356537
2.7 1 1 0.6795684285022281
2.7 1 0 0.6795684285022281
2.72 1 1 0.6791325552487661
2.72 1 0 0.6791325552487661
2.74 1 1 0.6787240885027277
2.74 1 0 0.6787240885027277
2.76 1 1 0.6783404969519253
2.76 1 0 0.6783404969519253
2.78 1 1 0.677979375256468
2.78 1 0 0.677979375256468
2.8 1 1 0.6776384368798076
2.8 1 0 0.6776384368798076
2.82 1 1 0.677315505633828
2.82 1 0 0.677315505633828
2.84 1 1 0.6770085121642918
2.84 1 0 0.6770085121642918
2.859999999999999 1 1 0.6767154849237806
2.859999999999999 1 0 0.6767154849237806
2.88 1 1 0.6764346434415569
2.88 1 0 0.6764346434415569
2.9 1 1 0.6761642879252122
2.9 1 0 0.6761642879252122
2.92 1 1 0.6759044946184491
2.92 1 0 0.6759044946184491
2.94 1 1 0.6756537240960434
2.94 1 0 0.6756537240960434
2.96 1 1 0.6754377913098295
2.96 1 0 0.6754377913098295
2.98 1 1 0.6751290223695934
2.98 1 0 0.6751290223695934
3 1 1 0.6749124331933232
3 1 0 0.6749124331933232
