# p  POINT_DATA 302
# x  y  z  p
0 0 0 74527.04780697248
0.02 0 0 74527.62376453244
0.02 0 1 74527.62376453244
0 0 1 74527.04780697248
0.04 0 0 74529.56854482381
0.04 0 1 74529.56854482381
0.06 0 0 74532.8498526405
0.06 0 1 74532.8498526405
0.08 0 0 74537.48796207474
0.08 0 1 74537.48796207474
0.1 0 0 74543.52859798144
0.1 0 1 74543.52859798144
0.12 0 0 74551.01138701524
0.12 0 1 74551.01138701524
0.14 0 0 74559.99299860629
0.14 0 1 74559.99299860629
0.16 0 0 74570.54493077757
0.16 0 1 74570.54493077757
0.18 0 0 74582.75082810124
0.18 0 1 74582.75082810124
0.2 0 0 74596.70725628579
0.2 0 1 74596.70725628579
0.22 0 0 74612.5253863407
0.22 0 1 74612.5253863407
0.24 0 0 74630.33218798402
0.24 0 1 74630.33218798402
0.26 0 0 74650.27175444225
0.26 0 1 74650.27175444225
0.28 0 0 74672.50691999463
0.28 0 1 74672.50691999463
0.3 0 0 74697.22107315493
0.3 0 1 74697.22107315493
0.32 0 0 74724.62027484018
0.32 0 0.9999999999999999 74724.62027484018
0.34 0 0 74754.93572232637
0.34 0 1 74754.93572232637
0.36 0 0 74788.42660218067
0.36 0 1 74788.42660218067
0.3800000000000001 0 0 74825.3834047385
0.3800000000000001 0 1 74825.3834047385
0.4000000000000001 0 0 74866.13178492153
0.4000000000000001 0 1 74866.13178492153
0.42 0 0 74911.03707193874
0.42 0 1 74911.03707193874
0.44 0 0 74960.50955624298
0.44 0 1 74960.50955624298
0.46 0 0 75015.01071392657
0.46 0 1 75015.01071392657
0.48 0 0 75075.06056952206
0.48 0 1 75075.06056952206
0.5 0 0 75141.24645149458
0.5 0 1 75141.24645149458
0.52 0 0 75214.2334647518
0.52 0 1 75214.2334647518
0.54 0 0 75294.77709739623
0.54 0 1 75294.77709739623
0.5600000000000001 0 0 75383.73850352004
0.5600000000000001 0 1 75383.73850352004
0.58 0 0 75482.1031727435
0.58 0 1 75482.1031727435
0.6 0 0 75591.00392891851
0.6 0 1 75591.00392891851
0.62 0 0 75711.74952229341
0.62 0 1 75711.74952229341
0.64 0 0 75845.86053293041
0.64 0 1 75845.86053293041
0.66 0 0 75995.11495374718
0.66 0 1 75995.11495374718
0.68 0 0 76161.60676971736
0.68 0 1 76161.60676971736
0.6999999999999998 0 0 76347.82236579072
0.6999999999999998 0 1 76347.82236579072
0.7200000000000001 0 0 76556.74172729555
0.7200000000000001 0 1 76556.74172729555
0.7399999999999999 0 0 76791.97591840698
0.7399999999999999 0 1 76791.97591840698
0.7600000000000001 0 0 77057.95432883351
0.7600000000000001 0 1 77057.95432883351
0.7799999999999999 0 0 77360.18735426565
0.7799999999999999 0 1 77360.18735426565
0.8000000000000002 0 0 77705.64606706693
0.8000000000000002 0 1 77705.64606706693
0.82 0 0 78103.35105882192
0.82 0 1 78103.35105882192
0.84 0 0 78565.31135184906
0.84 0 1 78565.31135184906
0.86 0 0 79107.82200670034
0.86 0 1 79107.82200670034
0.88 0 0 79753.55248749864
0.88 0 1 79753.55248749864
0.9 0 0 80536.7399913031
0.9 0 1 80536.7399913031
0.92 0 0 81506.22951774398
0.92 0 1 81506.22951774398
0.9399999999999999 0 0 82748.34060839808
0.9399999999999999 0 1 82748.34060839808
0.96 0 0 84336.71825180511
0.96 0 1 84336.71825180511
0.98 0 0 85590.00549062686
0.98 0 1 85590.00549062686
1 0 0 88590.00824937713
1 0 1 88590.00824937713
1.019011528859521 0.00774587170892227 0 88093.88796355255
1.019011528859521 0.00774587170892227 1 88093.88796355255
1.03814300222908 0.01519056678779096 0 82675.89291609715
1.03814300222908 0.01519056678779096 1 82675.89291609715
1.057389649276656 0.02233222874657104 0 78893.48851819927
1.057389649276656 0.02233222874657104 1 78893.48851819927
1.076746670449271 0.02916907666285784 0 76171.97830655609
1.076746670449271 0.02916907666285784 1 76171.97830655609
1.096209238669852 0.03569940562598783 0 73831.05270492399
1.096209238669852 0.03569940562598783 1 73831.05270492399
1.115772500540971 0.04192158716219385 0 71679.70104716512
1.115772500540971 0.04192158716219385 1 71679.70104716512
1.135431577555136 0.04783406964069692 0 69651.34442255554
1.135431577555136 0.04783406964069692 1 69651.34442255554
1.15518156731135 0.05343537866064074 0 67721.80566826872
1.15518156731135 0.05343537866064074 1 67721.80566826872
1.175017544737629 0.05872411741876205 0 65876.34880614352
1.175017544737629 0.05872411741876205 1 65876.34880614352
1.194934563319166 0.06369896705771372 0 64096.06602430366
1.194934563319166 0.06369896705771372 1 64096.06602430366
1.214927656331854 0.06835868699494907 0 62370.21101513247
1.214927656331854 0.06835868699494907 1 62370.21101513247
1.234991838080839 0.07270211523208703 0 60693.74024634028
1.234991838080839 0.07270211523208703 1 60693.74024634028
1.255122105143807 0.07672816864468057 0 59060.22513351386
1.255122105143807 0.07672816864468057 1 59060.22513351387
1.275313437618693 0.08043584325231667 0 57465.4536571117
1.275313437618693 0.08043584325231667 1 57465.45365711169
1.295560800375496 0.08382421446897959 0 55907.53096687362
1.295560800375496 0.08382421446897959 1 55907.53096687362
1.315859144311896 0.08689243733361551 0 54385.01490339992
1.315859144311896 0.08689243733361551 0.9999999999999999 54385.01490339992
1.336203407612353 0.08963974672084118 0 52896.29212744736
1.336203407612353 0.08963974672084118 1 52896.29212744736
1.356588517010376 0.09206545753174478 0 51439.54824235689
1.356588517010376 0.09206545753174478 1 51439.54824235689
1.377009389053645 0.09416896486472859 0 50013.38755830526
1.377009389053645 0.09416896486472859 1 50013.38755830526
1.39746093137168 0.09594974416635349 0 48616.86384949563
1.39746093137168 0.09594974416635349 1 48616.86384949563
1.417938043945728 0.09740735136214917 0 47249.18456492728
1.417938043945728 0.09740735136214917 1 47249.18456492728
1.438435620380559 0.09854142296735158 0 45909.76979747653
1.438435620380559 0.09854142296735158 1 45909.76979747653
1.458948549177853 0.0993516761775457 0 44598.32116054165
1.458948549177853 0.0993516761775457 1 44598.32116054165
1.479471715010857 0.09983790893918965 0 43314.78530471336
1.479471715010857 0.09983790893918965 1 43314.78530471336
1.5 0.1000000000000001 0 42059.19871017073
1.5 0.1000000000000001 1 42059.19871017073
1.520528284989143 0.09983790893918965 0 40831.85981456932
1.520528284989143 0.09983790893918965 1 40831.85981456932
1.541051450822147 0.0993516761775457 0 39633.07384714419
1.541051450822147 0.0993516761775457 1 39633.07384714419
1.561564379619441 0.09854142296735158 0 38464.27010151729
1.561564379619441 0.09854142296735158 1 38464.27010151729
1.582061956054272 0.09740735136214917 0 37324.5372837521
1.582061956054272 0.09740735136214917 1 37324.5372837521
1.60253906862832 0.09594974416635349 0 36219.39520692045
1.60253906862832 0.09594974416635349 1 36219.39520692045
1.622990610946355 0.09416896486472837 0 35151.09261274787
1.622990610946355 0.09416896486472837 1 35151.09261274787
1.643411482989624 0.09206545753174478 0 34097.40419094179
1.643411482989624 0.09206545753174478 1 34097.40419094179
1.663796592387647 0.08963974672084141 0 33182.47483164414
1.663796592387647 0.08963974672084141 1 33182.47483164414
1.684140855688104 0.08689243733361551 0 32210.53170368944
1.684140855688104 0.08689243733361551 1 32210.53170368944
1.704439199624504 0.08382421446897959 0 46344.78434342116
1.704439199624504 0.08382421446897959 1 46344.78434342117
1.724686562381307 0.08043584325231667 0 62459.19382054073
1.724686562381307 0.08043584325231667 1 62459.19382054072
1.744877894856193 0.07672816864468035 0 63558.34409621481
1.744877894856192 0.07672816864468035 1 63558.3440962148
1.76500816191916 0.07270211523208703 0 63452.32399892201
1.765008161919161 0.07270211523208703 1 63452.323998922
1.785072343668146 0.06835868699494907 0 64209.10255436572
1.785072343668146 0.06835868699494907 1 64209.10255436572
1.805065436680834 0.06369896705771372 0 65431.01186823871
1.805065436680834 0.06369896705771372 1 65431.01186823871
1.824982455262371 0.05872411741876182 0 66821.99231897219
1.824982455262371 0.05872411741876182 1 66821.99231897219
1.84481843268865 0.05343537866064074 0 68369.21382083284
1.84481843268865 0.05343537866064074 1 68369.21382083284
1.864568422444864 0.04783406964069692 0 70062.49754036516
1.864568422444864 0.04783406964069692 1 70062.49754036516
1.884227499459029 0.04192158716219363 0 71878.56040861306
1.884227499459029 0.04192158716219363 1 71878.56040861306
1.903790761330148 0.03569940562598806 0 73809.47656873969
1.903790761330148 0.03569940562598806 1 73809.47656873969
1.923253329550729 0.02916907666285784 0 75870.12706635807
1.923253329550729 0.02916907666285784 1 75870.12706635807
1.942610350723344 0.02233222874657081 0 78086.33614884209
1.942610350723344 0.02233222874657081 1 78086.33614884209
1.96185699777092 0.01519056678779096 0 80423.35523544613
1.96185699777092 0.01519056678779096 1 80423.35523544613
1.980988471140479 0.00774587170892227 0 82021.09158293907
1.980988471140479 0.00774587170892227 1 82021.09158293907
2 0 0 85856.10861160606
2 0 1 85856.10861160606
2.02 0 0 87058.94711240637
2.02 0 1 87058.94711240637
2.04 0 0 83399.81807235723
2.04 0 1 83399.81807235723
2.06 0 0 81278.04724766983
2.06 0 1 81278.04724766983
2.08 0 0 80143.88569420474
2.08 0 1 80143.88569420474
2.1 0 0 79338.11005503559
2.1 0 1 79338.11005503559
2.12 0 0 78689.21388729036
2.12 0 1 78689.21388729036
2.14 0 0 78142.84643213003
2.14 0 1 78142.84643213003
2.16 0 0 77674.23444720717
2.16 0 1 77674.23444720717
2.18 0 0 77267.59906858846
2.18 0 1 77267.59906858846
2.2 0 0 76911.24250923531
2.2 0 1 76911.24250923531
2.22 0 0 76596.25793385982
2.22 0 1 76596.25793385982
2.24 0 0 76317.60428906779
2.24 0 1 76317.60428906779
2.26 0 0 76076.04921933405
2.26 0 1 76076.04921933405
2.28 0 0 75863.97055210115
2.28 0 1 75863.97055210115
2.3 0 0 75671.83778759999
2.3 0 1 75671.83778759999
2.32 0 0 75498.36213753227
2.32 0 0.9999999999999999 75498.36213753227
2.34 0 0 75340.83976521133
2.34 0 1 75340.83976521133
2.36 0 0 75197.29105225898
2.36 0 1 75197.29105225898
2.38 0 0 75066.49669983561
2.38 0 1 75066.49669983561
2.4 0 0 74947.34004735356
2.4 0 1 74947.34004735356
2.42 0 0 74838.77677479698
2.42 0 1 74838.77677479698
2.44 0 0 74739.86234696489
2.44 0 1 74739.86234696489
2.46 0 0 74649.69003083423
2.46 0 1 74649.69003083423
2.48 0 0 74567.41920802771
2.48 0 1 74567.41920802771
2.5 0 0 74492.29980896051
2.5 0 1 74492.29980896051
2.52 0 0 74423.65123372551
2.52 0 1 74423.65123372551
2.54 0 0 74360.85328156303
2.54 0 1 74360.85328156303
2.56 0 0 74303.34361721858
2.56 0 1 74303.34361721858
2.58 0 0 74250.61417513131
2.58 0 1 74250.61417513131
2.6 0 0 74202.20642177072
2.6 0 1 74202.20642177072
2.62 0 0 74157.70650181337
2.62 0 1 74157.70650181337
2.64 0 0 74116.7406491882
2.64 0 1 74116.7406491882
2.66 0 0 74078.97006927669
2.66 0 1 74078.97006927669
2.68 0 0 74044.08513509433
2.68 0 1 74044.08513509433
2.7 0 0 74011.80477743736
2.7 0 1 74011.80477743736
2.72 0 0 73981.87814126571
2.72 0 1 73981.87814126571
2.74 0 0 73954.07572164746
2.74 0 1 73954.07572164746
2.76 0 0 73928.18302820329
2.76 0 1 73928.18302820329
2.78 0 0 73904.00267898125
2.78 0 1 73904.00267898125
2.8 0 0 73881.35368217164
2.8 0 1 73881.35368217164
2.82 0 0 73860.07007292395
2.82 0 1 73860.07007292395
2.84 0 0 73839.99885583179
2.84 0 1 73839.99885583179
2.86 0 0 73821.00452676549
2.86 0 1 73821.00452676549
2.88 0 0 73802.95341947657
2.88 0 1 73802.95341947657
2.9 0 0 73785.80450395989
2.9 0 1 73785.80450395989
2.92 0 0 73769.34382568955
2.92 0 1 73769.34382568955
2.94 0 0 73754.31545116103
2.94 0 1 73754.31545116103
2.96 0 0 73738.40698896021
2.96 0 1 73738.40698896021
2.98 0 0 73752.06568018979
2.98 0 1 73752.06568018979
3 0 0 73737.3619626115
3 0 1 73737.3619626115
