# p  POINT_DATA 302
# x  y  z  p
0 1 0 74168.09255188797
0 1 1 74168.09255188797
0.02 1 1 74167.55048977953
0.02 1 0 74167.55048977953
0.04 1 1 74165.74759911225
0.04 1 0 74165.74759911225
0.06 1 1 74162.68113508867
0.06 1 0 74162.68113508867
0.08 1 1 74158.35043506116
0.08 1 0 74158.35043506116
0.1 1 1 74152.72376453661
0.1 1 0 74152.72376453661
0.12 1 1 74145.76895318368
0.12 1 0 74145.76895318368
0.14 1 1 74137.44288334119
0.14 1 0 74137.44288334119
0.16 1 1 74127.69260385711
0.16 0.9999999999999999 0 74127.69260385711
0.18 1 1 74116.45628208776
0.18 1 0 74116.45628208776
0.2 1 1 74103.66310079883
0.2 1 0 74103.66310079883
0.22 1 1 74089.23327605089
0.22 1 0 74089.23327605089
0.24 1 1 74073.07727798836
0.24 1 0 74073.07727798836
0.26 1 1 74055.09553900147
0.26 1 0 74055.09553900147
0.28 1 1 74035.17808655294
0.28 1 0 74035.17808655294
0.3 1 1 74013.20417204517
0.3 1 0 74013.20417204517
0.32 1 1 73989.04187725113
0.32 1 0 73989.04187725113
0.34 1 1 73962.54770558653
0.34 1 0 73962.54770558653
0.36 1 1 73933.56617263358
0.36 1 0 73933.56617263358
0.3800000000000001 1 1 73901.92940029298
0.3800000000000001 1 0 73901.92940029298
0.4000000000000001 1 1 73867.45672258417
0.4000000000000001 1 0 73867.45672258417
0.42 1 1 73829.95431330981
0.42 1 0 73829.95431330981
0.44 1 1 73789.21484618714
0.44 1 0 73789.21484618714
0.46 1 1 73745.01719931969
0.46 1 0 73745.01719931969
0.48 1 1 73697.12621729248
0.48 1 0 73697.12621729248
0.5 1 1 73645.29254545289
0.5 1 0 73645.29254545289
0.52 1 1 73589.25255222138
0.52 1 0 73589.25255222138
0.54 1 1 73528.72835651544
0.54 1 0 73528.72835651544
0.5600000000000001 1 1 73463.42797849372
0.5600000000000001 1 0 73463.42797849372
0.58 1 1 73393.04563279147
0.58 1 0 73393.04563279147
0.6 1 1 73317.26218416734
0.6 1 0 73317.26218416734
0.62 1 1 73235.74578595741
0.62 1 0 73235.74578595741
0.64 1 1 73148.15272187311
0.64 1 0 73148.15272187311
0.66 1 1 73054.12847143253
0.66 1 0 73054.12847143253
0.68 1 1 72953.30901862934
0.68 1 0 72953.30901862934
0.6999999999999998 1 1 72845.32242228379
0.6999999999999998 1 0 72845.32242228379
0.7200000000000001 1 1 72729.79066486238
0.7200000000000001 1 0 72729.79066486238
0.7399999999999999 1 1 72606.3317944119
0.7399999999999999 1 0 72606.3317944119
0.7600000000000001 1 1 72474.56237160426
0.7600000000000001 1 0 72474.56237160426
0.7799999999999999 1 1 72334.10023100178
0.7799999999999999 1 0 72334.10023100178
0.8000000000000002 1 1 72184.56756171436
0.8000000000000002 1 0 72184.56756171436
0.82 1 1 72025.59431148414
0.82 1 0 72025.59431148414
0.84 1 1 71856.82190410519
0.84 1 0 71856.82190410519
0.86 1 1 71677.90729918919
0.86 1 0 71677.90729918919
0.88 1 1 71488.52723800072
0.88 1 0 71488.52723800072
0.9 1 1 71288.38325399702
0.9 1 0 71288.38325399702
0.92 1 1 71077.2049502423
0.92 1 0 71077.2049502423
0.9399999999999999 1 1 70854.7613177071
0.9399999999999999 1 0 70854.7613177071
0.96 1 1 70620.83996382818
0.96 1 0 70620.83996382818
0.98 1 1 70375.34446032459
0.98 1 0 70375.34446032459
1 1 1 70118.0141110523
1 1 0 70118.0141110523
1.02 1 1 69849.0992193226
1.02 1 0 69849.0992193226
1.04 1 1 69568.61172460085
1.04 1 0 69568.61172460085
1.06 1 1 69276.33005277478
1.06 1 0 69276.33005277478
1.08 1 1 68972.67219446096
1.08 1 0 68972.67219446096
1.1 1 1 68657.90752624915
1.1 1 0 68657.90752624915
1.12 1 1 68332.40780468914
1.12 1 0 68332.40780468914
1.14 1 1 67996.68397624526
1.14 1 0 67996.68397624526
1.16 1 1 67651.36677588646
1.16 0.9999999999999999 0 67651.36677588646
1.18 1 1 67297.23381845822
1.18 1 0 67297.23381845822
1.2 1 1 66935.22866901863
1.2 1 0 66935.22866901863
1.22 1 1 66566.48350729998
1.22 1 0 66566.48350729998
1.24 1 1 66192.35958982763
1.24 1 0 66192.35958982763
1.26 1 1 65814.59234288524
1.26 1 0 65814.59234288524
1.28 1 1 65435.50487022923
1.28 1 0 65435.50487022923
1.3 1 1 65057.38125733064
1.3 1 0 65057.38125733064
1.32 1 1 64682.54590880679
1.32 1 0 64682.54590880679
1.34 1 1 64314.03782819379
1.34 1 0 64314.03782819379
1.36 1 1 63955.48108920855
1.36 1 0 63955.48108920855
1.38 1 1 63611.07994323937
1.38 1 0 63611.07994323937
1.4 1 1 63285.61754808898
1.4 1 0 63285.61754808898
1.42 1 1 62984.45258022293
1.42 1 0 62984.45258022293
1.44 1 1 62713.48707402221
1.44 1 0 62713.48707402221
1.46 1 1 62478.93693702253
1.46 1 0 62478.93693702253
1.48 1 1 62287.21650891469
1.48 1 0 62287.21650891469
1.5 1 1 62143.93987214597
1.5 1 0 62143.93987214597
1.52 1 1 62054.6830598111
1.52 1 0 62054.6830598111
1.54 1 1 62018.74841312425
1.54 1 0 62018.74841312425
1.56 1 1 62039.14830454283
1.56 1 0 62039.14830454283
1.58 1 1 62124.96355451971
1.58 1 0 62124.96355451971
1.6 1 1 62272.76921398734
1.6 1 0 62272.76921398734
1.62 1 1 62475.70416279605
1.62 1 0 62475.70416279605
1.64 1 1 62728.22580635036
1.64 1 0 62728.22580635036
1.66 1 1 63022.74009324428
1.66 1 0 63022.74009324428
1.68 1 1 63351.87483526695
1.68 1 0 63351.87483526695
1.7 1 1 63708.01899059748
1.7 1 0 63708.01899059748
1.72 1 1 64084.16530185939
1.72 1 0 64084.16530185939
1.74 1 1 64473.92845625234
1.74 1 0 64473.92845625234
1.76 1 1 64871.7525978315
1.76 1 0 64871.7525978315
1.78 1 1 65272.45095962121
1.78 1 0 65272.45095962121
1.8 1 1 65671.84155181679
1.8 1 0 65671.84155181679
1.82 1 1 66067.22106337304
1.82 1 0 66067.22106337304
1.84 1 1 66456.35869576543
1.84 1 0 66456.35869576543
1.86 1 1 66837.23430330049
1.86 1 0 66837.23430330049
1.88 1 1 67208.21710634782
1.88 1 0 67208.21710634782
1.9 1 1 67568.05352245338
1.9 1 0 67568.05352245338
1.92 1 1 67915.81147245792
1.92 1 0 67915.81147245792
1.94 1 1 68250.8260226166
1.94 1 0 68250.8260226166
1.96 1 1 68572.65463377803
1.96 1 0 68572.65463377803
1.98 1 1 68881.05836527451
1.98 1 0 68881.05836527451
2 1 1 69175.89235986088
2 1 0 69175.89235986088
2.02 1 1 69457.14411959806
2.02 1 0 69457.14411959806
2.04 1 1 69724.95125954346
2.04 1 0 69724.95125954346
2.06 1 1 69979.4777521373
2.06 1 0 69979.4777521373
2.08 1 1 70220.95150938527
2.08 1 0 70220.95150938527
2.1 1 1 70449.67138164442
2.1 1 0 70449.67138164442
2.12 1 1 70665.98044736135
2.12 1 0 70665.98044736135
2.14 1 1 70870.25579008466
2.14 1 0 70870.25579008466
2.16 1 1 71062.90059746556
2.16 0.9999999999999999 0 71062.90059746556
2.18 1 1 71244.33798923393
2.18 1 0 71244.33798923393
2.2 1 1 71415.00566525741
2.2 1 0 71415.00566525741
2.22 1 1 71575.35118217995
2.22 1 0 71575.35118217995
2.24 1 1 71725.8277851538
2.24 1 0 71725.8277851538
2.26 1 1 71866.89074544783
2.26 1 0 71866.89074544783
2.28 1 1 71998.99415837211
2.28 1 0 71998.99415837211
2.3 1 1 72122.58815959656
2.3 1 0 72122.58815959656
2.32 1 1 72238.1165194404
2.32 1 0 72238.1165194404
2.34 1 1 72346.01457680124
2.34 1 0 72346.01457680124
2.36 1 1 72446.70745496789
2.36 1 0 72446.70745496789
2.38 1 1 72540.6085918679
2.38 1 0 72540.6085918679
2.4 1 1 72628.1186033733
2.4 1 0 72628.1186033733
2.42 1 1 72709.6246704004
2.42 1 0 72709.6246704004
2.44 1 1 72785.49978918032
2.44 1 0 72785.49978918032
2.46 1 1 72856.1019921714
2.46 1 0 72856.1019921714
2.48 1 1 72921.77411998926
2.48 1 0 72921.77411998926
2.5 1 1 72982.8437251852
2.5 1 0 72982.8437251852
2.52 1 1 73039.6231094801
2.52 1 0 73039.6231094801
2.54 1 1 73092.40947835
2.54 1 0 73092.40947835
2.56 1 1 73141.48520217625
2.56 1 0 73141.48520217625
2.58 1 1 73187.11817057688
2.58 1 0 73187.11817057688
2.6 1 1 73229.56222546526
2.6 1 0 73229.56222546526
2.62 1 1 73269.05765786004
2.62 1 0 73269.05765786004
2.64 1 1 73305.83175266805
2.64 1 0 73305.83175266805
2.66 1 1 73340.09936404043
2.66 1 0 73340.09936404043
2.68 1 1 73372.0635101183
2.68 1 0 73372.0635101183
2.7 1 1 73401.91599725488
2.7 1 0 73401.91599725488
2.72 1 1 73429.83812274266
2.72 1 0 73429.83812274266
2.74 1 1 73456.00147742986
2.74 1 0 73456.00147742986
2.76 1 1 73480.56877327824
2.76 1 0 73480.56877327824
2.78 1 1 73503.6944721684
2.78 1 0 73503.6944721684
2.8 1 1 73525.52544739909
2.8 1 0 73525.52544739909
2.82 1 1 73546.20091777643
2.82 1 0 73546.20091777643
2.84 1 1 73565.85480712233
2.84 1 0 73565.85480712233
2.859999999999999 1 1 73584.6065867701
2.859999999999999 1 0 73584.6065867701
2.88 1 1 73602.59000102135
2.88 1 0 73602.59000102135
2.9 1 1 73619.80767280875
2.9 1 0 73619.80767280875
2.92 1 1 73636.58276368835
2.92 1 0 73636.58276368835
2.94 1 1 73651.37379022437
2.94 1 0 73651.37379022437
2.96 1 1 73667.63491119778
2.96 1 0 73667.63491119778
2.98 1 1 73640.78472061263
2.98 1 0 73640.78472061263
3 1 1 73652.04362199089
3 1 0 73652.04362199089
