/*--------------------------------*- C++ -*----------------------------------*\
| =========                 |                                                 |
| \\      /  F ield         | OpenFOAM: The Open Source CFD Toolbox           |
|  \\    /   O peration     | Version:  v1912                                 |
|   \\  /    A nd           | Website:  www.openfoam.com                      |
|    \\/     M anipulation  |                                                 |
\*---------------------------------------------------------------------------*/
FoamFile
{
    version     2.0;
    format      ascii;
    class       volScalarField;
    location    "1000";
    object      alphat;
}
// * * * * * * * * * * * * * * * * * * * * * * * * * * * * * * * * * * * * * //

dimensions      [1 -1 -1 0 0 0 0];


internalField   nonuniform List<scalar> 
104311
(
3.726280410750664e-05
2.934316716011358e-05
2.608487205010593e-05
1.649261378073208e-09
2.176536269071968e-09
9.318544474343484e-09
1.385353515117254e-10
7.517296811882273e-09
1.16983942929603e-10
1.069939147638883e-10
3.539622369367025e-09
9.857132471669988e-11
2.991010729117903e-05
1.757945367918204e-09
2.964340157465622e-05
1.149211019464203e-09
9.53272621909047e-11
5.673580970326696e-05
1.010371648176261e-10
6.11218318007433e-10
1.045862254020212e-10
1.072624682001397e-10
1.199875366286728e-10
1.078593060677613e-10
5.62110829312881e-13
4.607185247428472e-11
1.410613021232782e-10
2.850809083062113e-10
1.341653555286672e-10
1.38035758802768e-10
4.300290935138867e-10
1.423478391787649e-10
1.453317112093494e-10
5.53976782850822e-10
1.465372791025465e-10
6.481269550499917e-10
1.49294158900668e-10
7.32605930487214e-10
1.542620662254299e-10
8.183846160561068e-10
1.803112490668692e-10
9.017329505599337e-10
9.768220080028868e-10
1.045900555904257e-09
2.490777678990949e-10
2.207719008980261e-10
1.113248322268814e-09
9.357516294259813e-11
1.182830455233201e-09
1.251535739919826e-09
1.329054897259586e-09
1.385580541934368e-09
3.608684507287803e-11
1.406011478598752e-09
4.850834728622018e-11
1.429400121051188e-09
6.679015794604549e-11
8.617830699782431e-11
1.472651449792697e-09
1.510165828023722e-09
1.088361781526291e-10
1.088068252440076e-10
1.546136137124556e-09
1.054608821957746e-10
1.57851518431635e-09
1.006236287168101e-10
1.615707915404652e-09
9.812773720898566e-11
1.664179492260825e-09
0.0003392091365512449
1.693418332119579e-09
1.082912341413333e-10
1.711751245536535e-09
1.099469452593799e-10
1.09326378419867e-10
1.730163059762906e-09
1.75358864999232e-09
1.772153110791662e-09
9.688608719988415e-11
1.771505540795174e-09
9.239319644972906e-11
1.762408691243603e-09
8.668122049927497e-11
1.76205538011733e-09
1.773921185545846e-09
7.741505428177969e-11
7.055920136628718e-11
1.787500684205034e-09
6.311206680065091e-11
1.802890626284128e-09
5.689087196571424e-11
1.821681374113932e-09
5.258270922060985e-11
1.842915374142445e-09
1.864676755305658e-09
1.872930525426599e-09
1.873271006794397e-09
4.238195607240225e-11
1.878092936154885e-09
3.656843473915052e-11
3.109813205452807e-11
1.885659255347169e-09
2.654455537866724e-11
1.894425255956273e-09
2.321908280732e-11
1.899364727673537e-09
2.059380708730606e-11
1.904419389719774e-09
1.604874374013797e-11
1.910126930730842e-09
1.516849682882076e-11
1.906686155253134e-09
2.042360342436021e-11
1.900477040713246e-09
2.366514196789445e-11
1.897513279309463e-09
2.629430683886381e-11
1.896090302889824e-09
2.851791842078464e-11
1.898771847454933e-09
3.029677985962102e-11
1.914440782180175e-09
3.133291682821271e-11
1.922383641405739e-09
3.098217137176489e-11
1.921259792894626e-09
2.912944415092815e-11
1.922186877160074e-09
2.65367861047589e-11
1.930125360549821e-09
2.416077044056705e-11
1.938539384768302e-09
1.947007897457079e-09
2.008005551360579e-11
1.726220190050019e-11
1.958386576305905e-09
1.356893268700511e-11
1.96103063299624e-09
1.026413480077033e-11
1.961330745462253e-09
7.805480098809128e-12
1.962808793720962e-09
5.369843049837774e-12
1.963152226051233e-09
1.966880705974182e-09
2.229442356687716e-12
1.978703443740254e-09
1.6897493070313e-12
1.982968540039973e-09
1.976883101118457e-09
3.026299761719522e-12
1.970569927172597e-09
4.161489090380491e-12
1.970444844526586e-09
6.125643486344086e-12
2.017261718002777e-09
1.901754135748449e-09
7.975433597522415e-12
1.94615558050924e-09
9.136587311128752e-12
1.974868726256592e-09
1.103214213703414e-11
1.985426997713308e-09
1.293014448954167e-11
1.465081491366239e-11
1.986016326568961e-09
1.66472585106275e-11
1.984167355107806e-09
2.026958696455728e-11
1.984884188362716e-09
1.993429318642559e-09
1.995222483116893e-09
1.993875768357502e-09
1.994365843675938e-09
3.557901570953417e-11
1.993004611089141e-09
3.900706394032219e-11
1.98723358367728e-09
4.368686725446589e-11
1.985012799044809e-09
4.822808895041019e-11
1.988074939615983e-09
5.225223940425754e-11
1.98426804760137e-09
5.583991888879912e-11
1.976668307080378e-09
5.924563453431843e-11
1.969332941703991e-09
6.363268900030251e-11
1.960624016006631e-09
1.953729618560763e-09
1.950291282492261e-09
7.42525194634148e-11
7.717054081791464e-11
1.954029352411836e-09
1.968707497124746e-09
1.977983273262431e-09
1.984325720349179e-09
1.99284653883485e-09
1.048785704600976e-10
2.007688431470217e-09
1.080822873502693e-10
2.013412182782362e-09
1.150816381339586e-10
2.012664516363693e-09
1.225103398693268e-10
2.01725158604678e-09
1.284379755175565e-10
2.026748572971936e-09
1.343450251508407e-10
2.032489923968707e-09
1.401912201187639e-10
2.03391571491853e-09
1.455461653307541e-10
2.032765487846684e-09
1.509313244034121e-10
2.038137358586079e-09
1.564234185853182e-10
2.051823509855385e-09
1.619549271124606e-10
2.055503470806911e-09
1.673308384052323e-10
2.052871657699751e-09
1.732552557885915e-10
2.054263968653063e-09
1.803594410465001e-10
2.058081115198432e-09
2.05389215099788e-09
1.881844546191321e-10
2.050948725289273e-09
1.924889384189578e-10
2.055857754466251e-09
2.005385521056111e-10
2.052592380184587e-09
0.02525173819472904
2.048148608627125e-09
2.043223902577864e-09
2.188837322460035e-10
2.019652713221644e-09
2.229917507598226e-10
1.385116869546616e-08
2.018029574351856e-09
2.292810800598627e-10
2.003378450474361e-09
2.35314457511263e-10
2.026994738377696e-09
2.409929799873341e-10
2.02962648607831e-09
2.483334865657737e-10
2.046591603631379e-09
1.963553966218349e-09
2.577715690668568e-10
2.00533582076913e-09
2.615641488651237e-10
2.024316999114645e-09
2.66736476465242e-10
2.04070825433709e-09
2.724648403964283e-10
2.065263947047275e-09
2.773683299045756e-10
1.985367077415444e-09
2.827004296805907e-10
2.029906930331186e-09
2.049516185705961e-09
2.05343658431289e-09
0.02113006141994148
2.053340739354105e-09
2.06445380766486e-09
3.050398960045846e-10
3.062689429163555e-10
2.058487057621796e-09
2.05004473372771e-09
3.099730621451051e-10
2.035146914521308e-09
3.173899250378838e-10
2.020893826235389e-09
2.020106642550292e-09
3.290707503491634e-10
2.006279590999706e-09
3.319519017775499e-10
2.003710038134554e-09
3.380104667405893e-10
2.005726324300664e-09
1.994090091153181e-09
3.48961105551026e-10
1.984355400306373e-09
3.502289941294336e-10
1.962845958480464e-09
9.726212223438499e-09
3.547621324037956e-10
1.996338537851038e-09
3.60514903148981e-10
1.9365368514224e-09
3.645347145770563e-10
1.963633050148055e-09
3.676226639069813e-10
1.960309095627966e-09
1.951231530605982e-09
3.720001857163108e-10
1.932336659962311e-09
3.782937555589981e-10
1.907120077578357e-09
3.867869521704668e-10
1.872478866747583e-09
3.881423584509621e-10
1.847341433889692e-09
3.896039688543192e-10
1.834556780766951e-09
3.920921591526588e-10
1.806646510927215e-09
3.952874082489697e-10
1.774335388480134e-09
3.999352960715762e-10
1.743835459623094e-09
1.717860536979597e-09
1.698340125676066e-09
1.679207754258749e-09
1.660493150774619e-09
4.162631310385467e-10
1.642290674506656e-09
4.162062640498294e-10
1.624022747310592e-09
4.196283550261335e-10
1.610004321041834e-09
4.224460883750013e-10
1.594097062787453e-09
1.589267891035345e-09
4.254719788092395e-10
1.584073158504895e-09
4.308320058264505e-10
1.572154139168505e-09
4.348113188747073e-10
1.562338878017599e-09
4.373420022547836e-10
1.556551159572631e-09
4.398482669772337e-10
1.55390464136635e-09
4.432062030430292e-10
1.553290763022759e-09
4.479172022005405e-10
1.557312249098688e-09
1.565589710703217e-09
1.576159067661293e-09
1.58880767477472e-09
4.615690390257442e-10
1.60597155886026e-09
4.573474637822801e-10
1.627154060344661e-09
4.583019212594838e-10
1.651196429383624e-09
1.684458075006501e-09
4.599590783217415e-10
1.706124595510324e-09
4.624730059776314e-10
1.741372048416209e-09
4.641688769997379e-10
1.773878200221669e-09
4.670456997447313e-10
1.8026994992266e-09
4.720254230043821e-10
1.828938857468245e-09
1.862324083144614e-09
0.0002124185185576635
1.884128149323887e-09
4.80754618102321e-10
1.91542301796877e-09
4.785353409578101e-10
1.941991224812904e-09
4.810230995756659e-10
1.962839706060633e-09
1.987780260026756e-09
2.017552954809825e-09
4.896848137390117e-10
2.056314986182944e-09
4.880578600323173e-10
2.086646652884168e-09
4.900260125953842e-10
2.110615622665119e-09
4.958973163411776e-10
2.124792272677165e-09
2.135035914034505e-09
2.133981013610495e-09
5.061583174649755e-10
2.123942110299385e-09
5.015802879754263e-10
2.111350786400148e-09
0.0002578480736846291
5.017831755518049e-10
0.0002665832449890926
2.073608697391422e-09
2.02715702308945e-09
1.978516527585851e-09
1.940380051942161e-09
1.908295278251785e-09
1.888191025026587e-09
1.856094646888438e-09
1.829446983897154e-09
5.199357523331606e-10
1.815401195787469e-09
5.152007643027409e-10
1.812855616747132e-09
5.16526962569436e-10
1.814674115152855e-09
1.810799084377897e-09
5.201547344404218e-10
1.801510662411478e-09
5.222591895425046e-10
1.800614665134371e-09
5.256502776590571e-10
1.781319035885252e-09
1.75618133213039e-09
0.009695234475691964
1.72953071893425e-09
1.694061073205717e-09
5.383634969720525e-10
1.67135206705861e-09
5.309869672668527e-10
1.636630947030999e-09
1.599798621774009e-09
5.309969841987262e-10
1.570087073997612e-09
5.335189896386516e-10
1.545836837185878e-09
5.390658144991765e-10
1.530072228039662e-09
1.523014472432381e-09
1.522901784848338e-09
5.470915848673866e-10
1.531429852786763e-09
5.435784935197104e-10
1.550723552226088e-09
1.573160977989485e-09
5.453284840201896e-10
1.589292514699036e-09
5.489089006019551e-10
1.604357717311421e-09
5.518383858554141e-10
1.621112898416715e-09
1.637103346034865e-09
5.532361274936997e-10
1.646890599737204e-09
5.560249635642615e-10
1.652321159045021e-09
5.580166084668795e-10
1.644496759636593e-09
1.628672008837329e-09
5.582268936975015e-10
1.607942306086677e-09
5.602847449490134e-10
1.595453402336404e-09
5.610510141405787e-10
1.567689087149324e-09
1.534993946736171e-09
5.513228592763519e-10
1.510918919933159e-09
1.499900825580792e-09
5.499845922887194e-10
1.479993020332279e-09
1.458451808891354e-09
5.662999867424498e-10
1.440473467813612e-09
5.721277299311118e-10
1.435687696430766e-09
1.42523024137584e-09
5.769966308470293e-10
1.412220210819818e-09
1.407086787104611e-09
1.407735151953313e-09
1.417688042726342e-09
5.87233456825968e-10
1.428259448486286e-09
5.827333632169806e-10
1.434147131087498e-09
5.860859669573229e-10
1.440930834744495e-09
1.444485245292842e-09
5.999237372333907e-10
1.44595109387495e-09
1.451673133969394e-09
1.450333561307064e-09
6.005537944384903e-10
1.44211967147591e-09
5.934166654786546e-10
1.422698377464491e-09
5.943759196569228e-10
7.309007511708178e-09
1.450772578116935e-09
1.404938129554493e-09
5.977949903850065e-10
1.431103124422391e-09
6.019004364803712e-10
1.442359573892039e-09
1.450127502299945e-09
1.451416953801273e-09
1.44620934345391e-09
6.142321208988174e-10
1.441245784089147e-09
1.444475451767103e-09
6.101031155740978e-10
1.435786358114447e-09
1.416975922589099e-09
1.39583839795677e-09
1.376907177939211e-09
1.360761620605419e-09
6.239526796964673e-10
1.346962890123928e-09
6.173202356516694e-10
1.334195983700933e-09
1.328307568256388e-09
6.192936439466379e-10
1.324568506453458e-09
6.23338892606028e-10
1.317018325584098e-09
6.28222996027649e-10
1.309244574643982e-09
1.304768859603046e-09
1.313527864963698e-09
1.322390183490092e-09
1.324032502195043e-09
1.32616468067317e-09
1.332057192304601e-09
1.339552151972192e-09
1.339894885827079e-09
6.453608196548951e-10
1.339249431331333e-09
6.398218992614349e-10
1.344601924118524e-09
6.438404703277727e-10
1.341809210814574e-09
1.328262337580476e-09
1.316165084003138e-09
1.314059077830174e-09
1.315867663293553e-09
1.315359000143566e-09
1.31596236692575e-09
1.325678170836229e-09
1.329251910455878e-09
1.330171608290926e-09
6.709040961849282e-10
1.330635935384245e-09
6.683208249910465e-10
1.327880385719173e-09
6.703322617373672e-10
1.321054304741492e-09
1.310158929417269e-09
6.743235242444986e-10
1.303441119267282e-09
1.302895831961729e-09
1.290223749582539e-09
0.008942867110566941
1.274542146412995e-09
1.262316907444345e-09
6.919697083553431e-10
1.264752256762998e-09
0.00255506916278736
6.862525466729984e-10
0.002577001260093434
1.261416110211535e-09
6.901735901874567e-10
1.255938122000811e-09
1.254041975849732e-09
6.962653635186429e-10
1.255492460562142e-09
7.005778436119908e-10
1.263816209421026e-09
7.023883143471725e-10
1.27127499911335e-09
7.049856790915836e-10
1.271413811986609e-09
1.257774573780531e-09
7.107247196208224e-10
5.491216957181447e-09
1.297165812869757e-09
1.240985438142672e-09
1.254242644837727e-09
7.291812355254706e-10
1.250269030133119e-09
7.303481572887275e-10
1.244141022080382e-09
1.23797182597636e-09
7.402899039438097e-10
1.238883598179829e-09
7.556643362773261e-10
0.007794586542085152
1.229345572044093e-09
0.005148512117103095
1.211260835341497e-09
0.004132769371002896
1.196462832735217e-09
1.180222465272154e-09
0.003405584976681987
1.163939688053578e-09
0.003040339767494481
0.007386540853629569
1.151311232721806e-09
0.001599427781590985
1.151503102154913e-09
0.006995555367363174
0.006676491686891143
1.139855486179446e-09
0.002627734962927091
6.064074274677779e-10
0.00224666314416188
0.001527742423056398
1.124916039571598e-09
2.245041166877615e-11
1.12092534953362e-09
3.800677860558395e-10
2.146454932537844e-11
0.0006683687233407582
1.104365929487265e-09
3.075896432037315e-10
0.0009833944612241145
1.086120024479213e-09
1.691115677920183e-09
1.262691575126647e-09
2.210690826277304e-11
0.001356826600312069
1.784259308322208e-09
0.000596025000866091
0.0005031257924416854
0.0005869744269073737
0.0008258406867771753
9.410923658899365e-05
3.618451200040982e-05
3.422097176011254e-05
3.368266806248437e-05
3.311371531885774e-05
3.254182287397548e-05
3.209411907373475e-05
3.181982480711009e-05
3.16182921710917e-05
3.131578587882302e-05
3.079584996880717e-05
3.016823843834554e-05
2.971767086698914e-05
3.137937460964038e-05
3.046022780439439e-05
3.281878585577149e-05
5.816652991853567e-05
7.218341357611324e-05
3.002258771542166e-05
0.0003501435739323399
0.0003645677454711887
0.0003650593079607738
0.0003664435789930578
0.0003663821507523492
0.0003663159796759082
0.0003662538011533219
0.0003652106109513649
0.0003631151806992079
0.00036255051107443
0.0003621441433384263
0.0003607441543992118
0.0003600218911173556
0.0003595667990987723
0.0003597362174832873
0.0003587900329737201
0.0003495057312030625
0.0003499016238691336
0.0003079145931801313
0.0002799632954166973
0.0002908026215716881
0.0002949648857023741
0.0002977788084983086
0.0003612648565022055
0.000361093320015102
0.0003608374030124351
0.0003572223418005528
0.0003581209040348741
0.0003521732109729553
0.0003510194295301713
0.0003496122731006886
0.000339157582842062
0.0003176287641963226
0.0002969034526858673
0.0002812088146414626
0.0002509448539089908
0.000245437964244483
0.0001931713590195057
0.000199529497986779
0.000188251016537352
0.0001830060962223566
0.000158906479399345
0.0001589792058325782
0.0001592933910926559
0.0001600175890582311
0.00016121068921444
0.0001627813216500848
0.0001647395524947561
0.0001913840982683496
0.0002053330988040007
0.0002156650646123739
0.0002195275350932095
0.0002235144801130005
0.0002398046152672276
0.000242614518670613
0.0002716268198278715
0.0003180207511090009
0.0003086028472512541
0.0003821706919980657
0.0003959782085998936
0.0004602168532725257
0.0004800396497699979
0.0005001508736722014
0.0005208696451660025
0.0005414950067376914
0.0006485945876386453
0.0006330212827188605
0.0006641448548725666
0.000679717766597415
0.0007484067040212027
0.0008458040195067119
0.0009656118047792378
0.0009983435042487424
0.001092215740155091
0.001122236728313643
0.001255253148818942
0.001230645093331828
0.001376194536979182
0.001503897699785018
0.001530216097943787
0.001734913199162219
0.001767178206059882
0.001798701701414969
0.001830784631901424
0.00186282528696935
0.001894017914608968
0.001925644089143599
0.002091275685822328
0.002116682035254181
0.00214240100073411
0.002169319799417989
0.002305579105818164
0.00227800744819358
0.002322422959363986
0.002388935963934127
0.002506509701686464
0.002588176879642688
0.002580058673751842
0.002677519624113157
0.002694773337088204
0.00192213984121788
0.008194016291729474
0.008069214151114258
0.008344327250260184
0.008503974529206282
0.008584236315881786
0.008553308643334612
0.008578321850557834
0.008623689485948485
0.008667616967272184
0.008673166666817949
0.008755761693338424
0.008908187635502078
0.008874180356738058
0.008600384131262098
0.008530453737671527
0.008517963424158391
0.008550540133148092
0.008543326460376619
0.00855655129324223
0.008358211578226677
0.008317998435638288
0.008260471748709057
0.00822145257137925
0.008194118040049585
0.008125042088141438
0.008118032573853318
0.008107796927528442
0.008116007474255085
0.008110840062925005
0.008280185241090967
0.008315031288549907
0.008340256975421111
0.008356976309219558
0.00848363885714681
0.009287206120628671
0.009705252175504855
0.01029341361662655
0.0103592199267681
0.01042792733404049
0.01055105832916485
0.01069748860007294
0.01104086886266929
0.01175859518423581
0.01236144006489278
0.01318802825886689
0.01398672772317698
0.01412234656839561
0.01757827653724458
0.0177367181535439
0.01784345234079109
0.01790473320623266
0.0179296542303822
0.0178796235094165
0.01945670208061232
0.02076175035184297
0.02128794151398064
0.02140189277392488
0.02273334794948202
0.02556514667749939
0.02611521537532794
0.03129347824627293
0.03130281672374267
0.03140595087990737
0.03159929122847085
0.03124848763512802
0.03109024418363941
0.03269808742204548
0.03312833021934854
0.033252538945973
0.03332877837785511
0.03352427746775104
0.03347013946632935
0.03444645420685765
0.03489549758546442
0.03520350181611438
0.03533041450788032
0.03544609489026151
0.03569063676144207
0.03750868825851343
0.03700092200679146
0.03762689759501259
0.03765824313294892
0.03837021835012545
0.03724520921947289
0.03690899982594485
0.03657716057145763
0.03470675212557095
0.03407316851576895
0.03366627638002617
0.02953932272955696
0.0277211988417148
0.02548996543036336
0.02295752861206904
0.02060647267408488
0.005156471646561673
0.003514346620639997
0.002001689314491371
0.0005878118304354936
3.963633210992344e-05
3.626069170974885e-05
3.633469989296275e-05
2.867167507630379e-05
3.597391869888262e-05
3.579886017981733e-05
3.551814277367302e-05
3.512782614044124e-05
3.468062609395676e-05
2.622421157007796e-05
2.577229623324116e-05
2.528643849206158e-05
2.488747827711678e-05
2.442302694049625e-05
2.412144220190279e-05
2.401104288685524e-05
2.388908998089616e-05
2.355410067022537e-05
2.305964348762577e-05
2.254998072630707e-05
2.226052802603454e-05
2.232872152579346e-05
2.264723772422719e-05
2.321696331817914e-05
2.412223694481332e-05
2.575913018474584e-05
2.815894041985871e-05
3.178503562855348e-05
3.801437490910759e-05
4.718652029190133e-05
5.741766211509137e-05
7.106555966999791e-05
7.0462019101896e-05
2.436948078175517e-05
3.375252265816733e-05
4.823501717375074e-05
5.776744896459301e-05
5.502453912275534e-05
6.265678731620633e-05
7.204475342704336e-05
7.908093300700409e-05
8.360108013687365e-05
8.913216394088181e-05
9.596040513078303e-05
0.0001034907799403815
0.0001118453470079871
0.0001209523909588401
0.0001302861401770625
0.0001403302777693986
0.0001500412460528185
0.0001579249316335352
0.0001602810657437059
0.0001644945112396511
0.0001751367165969658
0.0001907122463787176
0.0002154161617815275
0.0002540235968125163
0.0002812131368922866
0.0002935495516483073
0.0003031651980004655
0.0003071077155464733
0.0003054473255397556
0.00031501682970774
0.0003133566091256612
0.0003144958668095464
0.0003597910836259516
0.0003626322398350021
0.0003637342330927325
0.0003169121681662783
0.0003168898689078516
0.0003654835511216644
0.0003657526329547691
0.00036589154256099
0.0003659357965888589
0.0003660308962351251
0.000366138351825549
0.0003662515271399316
0.0003167144570404286
0.0003166891697957612
0.000316741976769118
0.0003168013724512449
0.000366142735043244
0.0003659648666359972
0.0003657266012643745
0.0003654876063522714
0.0003173053695968918
0.0003647321373633524
0.0003643791826402415
0.000364051287375688
0.000363751329943487
0.0003634582848820319
0.0002165919504765275
0.0001894492055873973
0.0001752247945936822
0.0003618302269330471
0.0003615518433345538
0.0003612754898549083
0.0003610124036354507
0.0001677776675299852
0.0003603690444570548
0.0003602519347336551
0.0003602189158374857
0.0003601477051500622
0.0003601506748202625
0.0001692999906708073
0.0001654208796178328
0.0001658140011522883
0.0003590307022906839
0.000359204596827736
0.0003586971814931676
0.0003586568568204536
0.0003586726582967338
0.0001804958527353218
0.0003590483170017376
0.000358784544078235
0.0003591134400497234
0.0003593937609431513
0.0002219092162047064
0.0002363782575015933
0.0003464299798695568
0.0003441324291613118
0.0003469153063350526
0.0003311043183822943
0.0003211484964084212
0.0002938676741085132
0.0002993420279572365
0.0003040394487982213
0.0002946300594563156
0.0003011715470643175
0.0002909207847317389
0.0002854601938038274
0.0002879061720666624
0.0002782418349145062
0.0002783562058143236
0.000284090312059452
0.0002842541917941643
0.0002639830238973932
0.0002598481169249856
0.000255887170522757
0.0003107423622667296
0.0003201781162871965
0.0003296903163647763
0.000346209426037453
0.000350216234372143
0.0003574484790447869
0.0002270121492397297
0.0002225131168616773
0.0002182300638467549
0.0003604497483789607
0.0003599932308421469
0.0003594117374834665
0.000358769207172863
0.0001972252546815342
0.0001929475035318623
0.0003565101589935993
0.0003555298257583949
0.0003543945447276529
0.0003533122373206668
0.0001742572415297776
0.0001709489741621362
0.0001679656655622421
0.0003479851176281206
0.0003461233395198463
0.0003439396665786611
0.0003416536009193908
0.0001576685194626548
0.0003367460717404932
0.0003339685173437119
0.0003309314547326409
0.0003278077089464792
0.0003245407062171368
0.0003212041907182149
0.0001579731125757379
0.0003142099145619627
0.0003103201540867682
0.0003061351339273413
0.0003016985283457406
0.0001693964351485387
0.0002869037703036815
0.0002922536450298066
0.0001830928084693506
0.0002759304866580698
0.0002699727737372173
0.0002638158624689488
0.0002091748333752777
0.0002172303180795026
0.0002574693175654347
0.0002253486955590757
0.0002390752254833789
0.0002326724685032547
0.0002261133672348947
0.0002196048343509619
0.0002059898009125586
0.0002128344273534783
0.0003031839962571174
0.00031892117887392
0.0003343804617139683
0.0003499713050460648
0.0001782150138045117
0.0001739919656642664
0.0001702726592999941
0.0001670989634837253
0.0001644678849602896
0.0001623311993474865
0.0001608421847823684
0.000159619081498392
0.0004920970931388536
0.0005066362125007678
0.0005203588719405398
0.0005339417257527292
0.0005468681902430515
0.0005590968958090541
0.0005708293151218493
0.0001669754981925896
0.0001694099085181371
0.0001720712635469163
0.0001749266945783775
0.0001779331774932672
0.0001811001662078315
0.0001843596223193482
0.0001877208608243925
0.0006521212299722519
0.0001941749842897556
0.0001977022979628725
0.0002013776997097594
0.0006900290037186092
0.0002083233259905786
0.0006962513204156305
0.0007043348991231571
0.0007124854896436333
0.0002275952254452002
0.0002316778607897433
0.0002355511606345757
0.0007519432685726653
0.000760754325515046
0.0002461303867207175
0.0002498342294945949
0.0002536907042566208
0.0008271919420797117
0.0008457315721130228
0.0002618548878648452
0.0008672835504362554
0.0002774414335084489
0.0002840668267478881
0.0002914518013883365
0.0009740483804609315
0.001003441349259808
0.000299710485408759
0.001031836622101663
0.0003278229894319987
0.0003377241901111606
0.0003478582677037805
0.0003585689253423133
0.0003700235349668661
0.00119434853874732
0.00122411623451767
0.0004104466539122578
0.0004256889562451314
0.0004424290590471614
0.001346405548469791
0.00138063029980919
0.00141411208298642
0.001447595012908867
0.001480217282153531
0.0005616346610938592
0.0005812300847625948
0.0005997053833547606
0.0006168339152975363
0.001627297884587588
0.001653412624487724
0.001678565945669014
0.00170340440380616
0.0006957792306808913
0.0007123228459926231
0.0007293880683797625
0.001809954664212114
0.0007932307636948446
0.0007696648848547189
0.0008189511246932867
0.001902621543738454
0.0008746702014333608
0.0009043738678169519
0.0009348325603301413
0.001965649199930677
0.001988080814558033
0.001029912789715056
0.001061638305452729
0.002042158549499856
0.002059951404364945
0.001178561433232017
0.001151007007558769
0.001205131026128277
0.002143379527257247
0.002176034325657863
0.001279331474567796
0.001303308687424892
0.00132726682547932
0.001351559318529449
0.002278532110194
0.001400998211707267
0.001426254185866243
0.001451891332580218
0.00147763544339611
0.002338846993626837
0.00235199830496906
0.001556990799883739
0.001584331114120771
0.001612426756186479
0.001641641897928261
0.001670958358289122
0.002460604022875072
0.002451901431929869
0.001702826537032932
0.002432349874645864
0.002432585580055555
0.00244274669718458
0.002458904777886597
0.002472071378577052
0.002485353499500852
0.001956398194858051
0.001985669388221712
0.002013461745810838
0.002040016438051654
0.002066018006030232
0.002587113752734261
0.002613541714349153
0.002633913347864892
0.002653308973369262
0.002197404128203808
0.002226613821128712
0.002247446839017998
0.002266728436448319
0.002682513266397258
0.002663883678980746
0.00223048563358874
0.00268768327641224
0.002712915690982222
0.00233076449095527
0.002345698508352585
0.00235983358374904
0.002376603070307318
0.002773397843779108
0.002405401391097673
0.002415252505513248
0.002427128732715106
0.002435282676144481
0.002445851825468883
0.002481481055751247
0.002462247246969898
0.002822107115925014
0.00253997816807913
0.002526555040801574
0.002822809446328046
0.002825328442892326
0.002568515273900792
0.002828043741318777
0.002828196963155869
0.002604437651039902
0.002606599989373437
0.002622770362885305
0.002636000277987357
0.002647070462715759
0.002665471250215711
0.00285470769957419
0.002683616668137578
0.00269294283566904
0.002701582261860166
0.002704037922423772
0.002706047424071771
0.002707578424966611
0.002708583806828266
0.002708049086264094
0.002693817816785923
0.002693543683899205
0.002673464189836338
0.002658250073759708
0.002663646631240499
0.002522179208851449
0.002424597901544873
0.002208422594590718
0.002083494012916122
0.0004188074393382052
0.001210901788382931
0.003365764366943905
0.006955930416857069
0.007144387402156822
0.007092890926342693
0.007151665389651122
0.007328930648121229
0.007265557095750828
0.007297853939500877
0.00730594502273138
0.007361550079880475
0.007395989047615519
0.007403063020429709
0.007401224059209895
0.007381229536088263
0.007323186537724238
0.007243781431442617
0.007178487869868135
0.008842648459262196
0.008897541646975293
0.008891270592839172
0.00888895522171726
0.006963182824232796
0.006901543354753282
0.006809856353262206
0.00882176660972553
0.008774407375433464
0.008719648654146409
0.00863008765378233
0.006830621701316728
0.007039599425277544
0.00713598393751504
0.007177193609136334
0.007198587631888244
0.007215563524715807
0.008545465901539477
0.008473586040870089
0.008386313977926439
0.007215493353741975
0.007245335892792121
0.007287409531856229
0.00732057824070547
0.007336794704852284
0.008186641429077478
0.008181756536435063
0.008140952610907075
0.008120268706956207
0.00809466890139519
0.007218203003950817
0.007242809116186318
0.007269778181439077
0.008087943669555927
0.008092261744337423
0.007313970707396566
0.007330454257044121
0.008134272015990955
0.008176751399509276
0.008186537280426823
0.00818586765024683
0.008220165426148514
0.007346612199684916
0.007397626939130471
0.008343161521501727
0.008356196294382282
0.008333211913628168
0.00753873519045151
0.00760545105612265
0.008385749611691267
0.008430853420178117
0.008457678457834792
0.008450097272076134
0.007713324204083415
0.008518889450249728
0.008554001838812154
0.008595635575033031
0.008607702449882399
0.008669519896174156
0.008727729745507075
0.008743968602564422
0.008812148763830574
0.008885433915244417
0.008954749769340752
0.009053039558366416
0.009146251913057353
0.008030875308922372
0.00943556703802618
0.009572481208624884
0.009628352972346861
0.009693371200667133
0.009679958412946919
0.008227784503642314
0.008280783072446639
0.009748500766030815
0.00983553655416061
0.009949264946514122
0.01001877621655046
0.01011169813756581
0.01018072199364112
0.008425174824290544
0.008530960441791691
0.00864498263980475
0.008779021471344654
0.008928371817582326
0.01077017407017949
0.0108810568964181
0.01093474704268455
0.009193939725879417
0.01114167088594252
0.01128441114147689
0.01143766733024816
0.01158102498615286
0.009460688873783856
0.0118806889625999
0.0120217720914814
0.01217000025663345
0.009693084891804897
0.01252308046591354
0.01265224776428937
0.0128071506930452
0.01295438058229763
0.009714454943987497
0.01336604777655417
0.01352490243266614
0.01372538680226681
0.009948668084448579
0.009943528671595854
0.01430021842181935
0.01457466963281325
0.01489422073930748