/*--------------------------------*- C++ -*----------------------------------*\
| =========                 |                                                 |
| \\      /  F ield         | OpenFOAM: The Open Source CFD Toolbox           |
|  \\    /   O peration     | Version:  v1912                                 |
|   \\  /    A nd           | Website:  www.openfoam.com                      |
|    \\/     M anipulation  |                                                 |
\*---------------------------------------------------------------------------*/
FoamFile
{
    version     2.0;
    format      ascii;
    class       volScalarField;
    location    "1000";
    object      k;
}
// * * * * * * * * * * * * * * * * * * * * * * * * * * * * * * * * * * * * * //

dimensions      [0 2 -2 0 0 0 0];


internalField   nonuniform List<scalar> 
104311
(
3.642800408530877
3.755815738024796
3.64354937248231
3.88066353331268
6.563000357639506
12.88646453352152
2.638833794269287
6.097046335262895
2.351203590309388
2.197333690326084
2.255975547530662
2.04099623189734
3.514799082576362
1.015857149838905
3.456638763194358
0.6362393310468519
1.767125380959132
1.6714140938134
1.798551327743797
0.3213194557493849
1.806526668508745
1.802489546935708
0.06030113892461893
1.775213819564011
0.0002778646968367382
0.02276798995718241
0.07015033720803243
0.1429886955869161
1.699175219046961
1.70122706252292
0.2179697197410615
1.71327141202158
1.722405132732433
0.284298014508154
1.711527886584358
0.3370295441539818
1.684111828609355
0.3860263555552934
1.696981514511827
0.4369388400691052
1.73442818615355
0.4876572076331679
0.5344492281310628
0.5786469497804235
0.4703901870143228
0.4170862412899022
0.623498137181922
0.1784653979160942
0.6723661325634958
0.720911453459643
0.7741151375440958
0.8148056854456652
0.05732527486007081
0.8325037958035559
0.07500165792283631
0.8509384217261322
0.1005853788712654
0.1266720984664593
0.8832771496288417
0.9126143903928049
0.1548203796300883
0.1530462671976814
0.9412645285048993
0.1468765587171887
0.9681494128374069
0.139082891648951
0.9982277993752684
0.134894056791927
1.035711760963052
1.663571660824521
1.061430820486363
0.1468051892094319
1.081286433246608
0.1482374799542065
0.1466906196093317
1.100832176056029
1.12219821335831
1.140148702910722
0.1264669551479227
1.145028098036454
0.1196816237045246
1.144112880154036
0.1114415500233583
1.148794934198428
1.161355386108081
0.09782552781796416
0.08841087039305551
1.17477754387651
0.07848821412805694
1.189514187097525
0.07028358537483795
1.207345764235353
0.06455858783632561
1.227041771969231
1.247362794659695
1.2584393898848
1.26423581511459
0.05043567897992055
1.273309208614787
0.0432436459135233
0.03655830420755299
1.284230658537661
0.03104870681991876
1.295486601959413
0.02704182527178616
1.303389545568032
0.02389741965933666
1.310766174912761
0.0185684554284672
1.31836050500752
0.01742710320579244
1.319270671334249
0.02342193227180591
1.318216127651341
0.02704681041165181
1.319341120109869
0.02993873284282767
1.321549499119772
0.03234660487670332
1.326680985442492
0.03422914272939949
1.341488043704522
0.0352711067071278
1.351053332109144
0.03459788192841037
1.354324614121753
0.03235851935380421
1.359450855483016
0.02935599299295873
1.369700180047141
0.0266356140293381
1.380332105780538
1.390926603481157
0.02196544269771368
0.01878633482341048
1.404025939861557
0.01470436658313837
1.410275720602211
0.01108329326977165
1.414820472594178
0.008402580825458372
1.420081733694658
0.005757049029167685
1.424414913581361
1.430971390650971
0.002370944138849264
1.443573481705012
0.001790907930720224
1.450041564523367
1.449084747858532
0.003178609709900328
1.448012349378055
0.004357161496524069
1.453291665147302
0.006387410059721573
1.488300341954827
1.405878533406991
0.008283141439845532
1.442512085734437
0.009460772881566187
1.467368973394132
0.01138977339348162
1.478204011325741
0.01331727077509711
0.01505835849347323
1.481729259029923
0.01707772236969073
1.483555283918694
0.02074418221777391
1.487250031641275
1.497427502917269
1.50188963136408
1.504334797436873
1.50831053480912
0.03601044813213287
1.51074607735518
0.0393935175118507
1.509425670788454
0.04401834047293382
1.510296270087525
0.04849425476338385
1.515151044880481
0.05244160331174149
1.513975987713958
0.05593857721649123
1.509902120559533
0.05923912558911675
1.505955318586357
0.06352731623362469
1.500870385833082
1.497010942332072
1.495919753847092
0.07373396890970249
0.07646890100556165
1.500213586026659
1.513713745263177
1.522993433039324
1.530808650349616
1.54038826420065
0.1029768231401796
1.555843254150723
0.1059275687019425
1.563404230624154
0.1125522015591489
1.566196587087057
0.1196050428467871
1.573697770717163
0.1251836611292368
1.584961334431039
0.1307192964580567
1.59321385359158
0.1361982840132165
1.597896582181723
0.1411851851145794
1.60046644656206
0.1461786513066554
1.607705217956068
0.1512629277572035
1.622240633251591
0.156359992229058
1.627830270693327
0.1612935798479439
1.628424314372442
0.166744377017111
1.632519424268302
0.1733669510010467
1.638242398086751
1.637295708882977
0.1803529157716242
1.636612557235654
0.1841797678512435
1.64259655573562
0.1915976286243534
1.64132922560833
491.6014407080932
1.639505620458428
1.637214078731465
0.2083382297296836
1.619828928390052
0.2119718400953967
1.724404922975901
1.619287508159615
0.2176049392348103
1.608776757417271
0.2229870314834325
1.628688836434363
0.2280380811912078
1.632960159686356
0.2347087065361511
1.644539960870534
1.579354261409178
0.242992393721542
1.616063606199198
0.2462649021578538
1.63343953613274
0.2507692531811141
1.650263372473765
0.255777880647459
1.668996403774189
0.2600113847056233
1.607798814844309
0.2646470988855261
1.648936235671496
1.668912562756033
1.676003560604701
425.9517537946803
1.679583983916586
1.691840270524688
0.2840517659443653
0.2847548844091995
1.690249290117557
1.686290437092706
0.2877018360208026
1.676438956064739
0.2941510435244204
1.666880981596388
1.667315323833233
0.3041481896999029
1.658104303697301
0.3064165995001268
1.658038989914299
0.3116072644210283
1.661731843568417
1.655369948930394
0.3208549739970983
1.650894182605751
0.3215573915092167
1.637731018671674
1.282023995465253
0.3252136418454371
1.670631888754773
0.3299872508397663
1.62891300004247
0.3332155022851151
1.657378124833295
0.3355098561951395
1.66097495991738
1.660361200780756
0.338986240617864
1.651602441875931
0.3442457343541495
1.636895805636387
0.3514046366459338
1.613904488768859
0.352090115621175
1.596868175979716
0.3529275477212362
1.589629212183913
0.3546112526168556
1.570754170065379
0.3569106684103485
1.547452682959352
0.3605530460907008
1.525330455974503
1.507278514367418
1.494792935182031
1.482696540236866
1.470945070741672
0.3732556329874674
1.459973487985964
0.3726878414752404
1.449270086867728
0.375273229430976
1.44202819615363
0.3773544083922017
1.433517781628121
1.433368866713915
0.3795613767220488
1.433456084120855
0.3838932537619471
1.426846874192666
0.3870681662745313
1.421396424475236
0.3888824790800531
1.418771805849689
0.3906429896004691
1.418951346772857
0.3931044831543319
1.420473730247109
0.3968504706980716
1.425656615353655
1.434881231236903
1.445726390558773
1.457739465011068
0.407462864811006
1.473704796234022
0.4032013992558011
1.492992666230797
0.4034999239702164
1.51448777266709
1.543584012677202
0.4044101188390927
1.564311316288049
0.4060504447031977
1.593730094674699
0.4070731583843311
1.620011000394406
0.4091325489763693
1.642884142944116
0.4131240824662836
1.661693637793827
1.685139378951381
2.669940961446384
1.700375127032992
0.4199100377742402
1.719769172511574
0.4175769003081743
1.735551832426213
0.4193571350462455
1.747967529241219
1.76501681962049
1.786267164234624
0.4259873569006796
1.816942205161663
0.424213190990036
1.844923295489558
0.425510246502635
1.86664227282808
0.4303210541509384
1.882206085001929
1.895740793332142
1.899448736581492
0.4385468052659267
1.895792045435602
0.4342518070781261
1.890405900440098
3.455006221410685
0.4339711467087713
3.668603138457677
1.861052459499988
1.822621784737032
1.779823909645951
1.744847845526124
1.714167719991234
1.69274312163938
1.661042916619383
1.634381324641933
0.4473071212448195
1.619339165383481
0.4427676372577798
1.615320352413213
0.4434348454494711
1.616780510679294
1.614443360503395
0.4460795764150047
1.608691787840526
0.447557759936698
1.610587326613123
0.4500565245558218
1.597600542608135
1.579990899179302
357.2275950114811
1.561033684097545
1.534840512267105
0.4600116195236403
1.517410797251609
0.4533439972132891
1.489153125623954
1.458389603059835
0.4529221067805537
1.433005790546724
0.4546308302343181
1.411712005464964
0.4590944904027661
1.397827892034959
1.390998738463698
1.38919333297942
0.4653733781460566
1.394700863176127
0.4620443731226865
1.409724231804355
1.426881776890539
0.4631615999033005
1.43839330770168
0.4658746729792131
1.448777581501461
0.4680700772826412
1.460729979009501
1.471859299269378
0.4689781058639394
1.478055999507353
0.470980943935745
1.480719226277217
0.4723764507513445
1.471884922730061
1.456312437139809
0.4721364484580208
1.437503412855642
0.473448363150439
1.425508486341518
0.4737083243913597
1.401007445397304
1.373223426559448
0.4652589195807438
1.352922357784998
1.342681200568605
0.4636182852194525
1.324989760741048
1.305617039491604
0.4767201196981328
1.289817503149744
0.4814112541492503
1.284491105472282
1.274597216109464
0.4853177282359077
1.262297578476295
1.256303401639675
1.25517819606441
1.261753023664061
0.4932750468359955
1.268886850207889
0.4891107318086583
1.272204207296202
0.4916544058054672
1.276254737323818
1.277828587503137
0.5030199120765909
1.27805860225071
1.282056186692592
1.280184911275864
0.5031589482980768
1.272169440231494
0.4968069302769559
1.25404959441655
0.4972080949998551
0.9985181781661622
1.279071553756048
1.23405949540218
0.4997118465220629
1.252328195096936
0.5028990640669316
1.257963489642527
1.260506430732128
1.257600440808212
1.24951161197805
0.5124401945773925
1.242519683943507
1.242703225898566
0.5086208013851956
1.233769198140188
1.217029174772445
1.199019791340857
1.183328024780004
1.170274545745576
0.5191834094391508
1.15940672503211
0.5132620048764489
1.149697766162385
1.146116996047553
0.5146195646052701
1.144897547841185
0.5176925572649119
1.14066416347963
0.5216065420534821
1.136035032195419
1.133627776523513
1.141464487559621
1.148376520628573
1.148050744609558
1.146714791742794
1.14769783856242
1.149484176752859
1.145252101518198
0.5347978241819101
1.140650780348162
0.5297304408069367
1.141590583284342
0.5327012456641542
1.136089773353814
1.122397909492675
1.110400023933102
1.107196972019569
1.107578906429078
1.106063781260248
1.105394200752546
1.111904122421852
1.113199144777677
1.112133091340106
0.5535833502079449
1.110787358297005
0.5508678266121101
1.107054625977324
0.5521276471763296
1.100415471420495
1.09112560608555
0.5549950183888536
1.085496281682179
1.085108109395887
1.075547768244816
372.4088848879516
1.063622005562385
1.05452579283411
0.5682376158579561
1.056699629288087
68.23794100413245
0.562897305862767
68.7528325670488
1.054539138800279
0.5655292557673445
1.05008350443312
1.048185486198879
0.5701034074786036
1.048768256446961
0.5732548122141952
1.05486762968634
0.5743938547003978
1.060037473101555
0.5760407611411497
1.059397819794094
1.047384676469467
0.5803962032121774
0.712427284345074
1.081824694213086
1.032183814893096
1.04119821335072
0.5943896031681206
1.036550426830312
0.5950546696744264
1.029793488096943
1.023247874035776
0.603055417928327
1.022078026932368
0.6159196554271735
390.7520314736149
1.012878604114027
320.5617238934749
0.9969767139550192
323.884006983813
0.9834584134158462
0.9689818500475018
324.6867796084886
0.9544632178592077
324.0762712541048
397.9575787338357
0.943276940826331
98.55408258133667
0.9421935493705966
359.2275753164721
343.9217542915332
0.9325529859470647
89.01685943603739
0.7636018416208464
267.2176318673768
216.9785911578793
0.9193092719094594
0.03571857510504497
0.915373663961961
0.3438040745918604
0.019402053146467
77.12530281267229
0.9013140022191437
0.2801776124399813
107.1271591209685
0.8855320898882082
1.544416770912083
1.024323778023299
0.03491694060709313
119.799227127692
1.996583176794518
88.78584379471894
103.0077118389766
100.5083646597566
99.04931622314128
31.21627267954804
2.923715335963184
3.093483706597835
3.11987658828333
3.14518549171634
3.17195740816687
3.202741316643563
3.237558836067592
3.271672263296155
3.303578731318041
3.333213375555172
3.362871998872595
3.403135002465332
3.639493906203068
3.575681767585739
3.706491689591153
1.693659614702221
1.862718325283215
1.513837984673313
1.657319491445741
1.627335307200743
1.618127938149759
1.523809437171449
1.534168870741669
1.513704593450199
1.503800602723908
1.455308083076765
1.401376410478071
1.392460031783147
1.383631928738405
1.343674017452076
1.306874120056245
1.29564956388743
1.30132790604176
1.271132026745074
1.267793090903564
1.267774218885053
1.269792169384873
1.276946873704853
1.277810376504935
1.277144386369409
1.276531138965567
1.265573630635266
1.263007227654054
1.260309375840294
1.235525797387445
1.240639245302974
1.207174235646127
1.200854758695505
1.194910485023573
1.166919133089684
1.13620071108843
1.124638072224942
1.121924414515713
1.126018631181714
1.128423588521095
1.194298844439133
1.179670764658644
1.209470461185962
1.227295471659738
1.501713718977161
1.545187969732628
1.592095280712067
1.642140097743302
1.694694158078907
1.74984664684026
1.807475558541915
2.34336588226203
2.560182998363943
2.731385569921279
2.787517223174295
2.844248910254429
3.090412945920082
3.155225200756562
3.800427539021181
4.965257195551017
4.726932253658895
6.653901066961192
7.024732425833904
8.894174972147784
9.460864982790886
10.06692391263446
10.7001411535295
11.33791630336999
14.64791808130153
14.18121171879729
15.098383687622
15.54678620020551
17.52297967792781
20.40060911409646
24.06610029418653
25.04550430184214
27.96536519730682
28.87123426449256
32.84696438759971
32.12825456698582
36.30440359326199
39.86725014951787
40.56237058161305
46.0562772190152
46.96390080851417
47.86994097237264
48.80348613947552
49.73428065362026
50.63592267029878
51.55988586283743
55.80655172467866
56.27257694569968
56.71785080874689
57.15166989337101
60.88162177602023
60.31760266566162
61.42618970051849
63.79923028886888
67.13335813131415
69.14874828833308
68.93874491435309
70.55326651384929
277.8750876968419
205.4282959627183
384.4435375998746
385.7235346241371
382.263490307127
380.9053628701652
380.547438907157
380.9852066212065
380.8969396810219
380.4474552298266
379.8852708019849
378.9878619394927
376.750958805592
372.6244397713539
372.8277385695216
368.7415791433864
367.6866831643781
367.0189705665037
366.4501804982936
366.4090286252176
366.6282614475044
370.2833098297546
370.6188714734546
370.9917017328071
371.2691978684591
371.227780469624
368.9220389168145
368.1265171481463
367.6041593180183
365.3269151333182
365.112080047597
362.219773030354
361.0749708434947
360.7864981779724
360.6857811610219
358.0527585995607
354.3014837059943
356.4363044702298
353.959673380224
354.7547167997521
354.9762206221303
355.0766829620866
355.5727386794879
360.2344098071737
358.7952484220041
361.8603254669576
363.3817107277484
364.0644759065574
362.6571500315537
386.6516362441856
388.9020721553974
389.7707411970922
389.6308148413239
388.5418208335228
386.6631566094749
405.6513410771838
421.8090480114911
428.0590492254709
429.7143456820085
450.925212257317
497.2118923096329
510.9782671373832
630.4977632120184
637.4274090290252
644.3498872198913
650.5430275479091
655.4454458376835
655.0835791700832
711.2611167783583
728.6314202006307
743.6253470685452
755.7396992798988
766.0153737962037
821.4594865830501
875.0181996085984
897.2972410996479
921.3040406233453
943.4928201663791
961.7841729152028
978.7492110405952
1100.133027523463
1151.380544110966
1315.242537886983
1336.117110839215
1501.129341485389
1575.870997189005
1592.857418004623
1610.098411332687
1640.29541816818
1638.804256701316
1862.741305109056
2208.709608815383
2262.77875981949
2304.325577686622
2321.878675783138
2364.048369543598
2419.379288234935
1706.617735373101
725.3036372625124
406.8653994242075
2.736089220234463
2.905655781244415
2.886143082830823
3.032115192201209
2.949405839418198
2.981773877868036
3.012093387967269
3.040567240085747
3.067616872557276
2.867531839408834
2.886250652092144
2.906603921552888
2.937845839261461
2.959493944463392
2.992939434774554
3.037932842166708
3.086007543938124
3.122380254302485
3.14931311733073
3.175483796971847
3.215496517889214
3.279503531331727
3.359592162725346
3.454091035139937
3.563532822147708
3.710133162829312
3.873433346444521
4.030170174117528
4.12785931416389
3.863746761932488
3.364415843774929
3.012152936870753
2.912288864238072
1.412576814046969
1.516677992138437
1.638522909415091
1.663444499131745
2.127238486944889
1.722901807124604
1.762915403235862
1.766431180475157
1.738225198671923
1.717391169413727
1.708809259882639
1.705751527018645
1.703248663586659
1.700789376523838
1.69995963463762
1.700970799350597
1.702697336155463
1.702764461699425
1.702581101458117
1.703288443953135
1.704441395879744
1.705535672904359
1.706130520951127
1.704081757599367
1.699272195458144
1.693257912152862
1.686762267843704
1.680442230026854
1.67465057545377
1.66961780702892
1.783746104460642
1.77394582775532
1.651165578231153
1.644331507969214
1.636512655510341
1.722434939283513
1.708347042984245
1.608364567616257
1.598023313951347
1.587305052272155
1.5763037940324
1.565451847978298
1.554766137287835
1.54433521747981
1.609683136587237
1.599750724506989
1.589759899328611
1.57987524937938
1.493961118776503
1.484170628476735
1.474421395534406
1.464954389723321
1.539709167265365
1.445912931162711
1.436679912528703
1.42765196584484
1.418878066269799
1.410341062718822
1.539518600040729
1.545954768337871
1.553978985090256
1.375196022387687
1.367065228120426
1.359140323525776
1.351544983856706
1.594504335475998
1.336745523885131
1.330395831775548
1.324541884746556
1.318589334894702
1.313053672854835
1.634619310580247
1.641756390476172
1.649448261181208
1.285638868488471
1.290606368172496
1.280918574585328
1.276916408461855
1.273858004043502
1.685370891829213
1.268625663491855
1.269662729574783
1.268033069348934
1.267967428294796
1.697302442563093
1.696108241964573
1.267860634110708
1.268024207857905
1.26812978473013
1.268397478462209
1.26921204260211
1.660842547983902
1.271901395792041
1.271042720226611
1.272637788113431
1.273453269465844
1.274348788318732
1.275191047189899
1.276326521805696
1.569107145111472
1.277572017938625
1.277747410670481
1.278135390860023
1.522231133223808
1.511197928652492
1.501174105862187
1.275573218077655
1.274475331294512
1.273106554549993
1.271371862016317
1.269410217395762
1.267779424349259
1.455869948480827
1.453868173164942
1.453113840764535
1.257005233104152
1.253253424954118
1.24920498386554
1.245015639561286
1.474031784294981
1.483863044727714
1.230375506458248
1.224886940500399
1.219015838354212
1.213199692856487
1.560401851393412
1.582292159097634
1.607316741441557
1.189047035024223
1.183306581409048
1.177669340333169
1.17233965347962
1.785039750469783
1.161632744912856
1.156743844476294
1.152015340252818
1.147559768819501
1.143462025927452
1.139662348679279
2.241565104558529
1.132998265475054
1.130309202160192
1.128032935385461
1.126032320145939
2.830413824494406
1.122167771630714
1.123099689745719
3.359284928167834
1.121498519780469
1.121881645966391
1.122815342178831
4.305435011623826
4.578167432486736
1.123453185164733
4.871921815281781
1.132146690240413
1.136729593479845
1.142434814521494
1.149417000032005
1.167790651804655
1.15744694659049
7.79503272454062
8.365161559923951
8.963396960942164
9.579015970839892
1.247468508903124
1.270072482535047
1.295306628723281
1.323067554792368
1.353281029382301
1.386280101806554
1.421874235407336
1.459929370520811
15.43793241534368
16.03507156308194
16.60502259097274
17.16117319249205
17.68115861346521
18.1699179089746
18.63071779774826
1.866308720845581
1.926687146947335
1.987749695936466
2.049061563973513
2.110057969839616
2.170726043487069
2.22933411839119
2.287095759687571
20.99471810096755
2.399125545682749
2.452383803858038
2.509750155171404
21.47941830532292
2.616495804127367
21.64669142595838
21.80680699616148
21.97612689476417
2.905427317795089
2.965912140801155
3.028385311027594
23.02570118261465
23.35844960249362
3.221744118360103
3.292786065839843
3.371889192115019
25.92081276974365
26.73754727306031
3.558848790911692
27.68229608909001
3.94645717593278
4.112578760152975
4.297409221788253
32.43476661865203
33.73288600833371
4.503569833395126
35.02585961723214
5.213421356493696
5.467016479131348
5.729759354324497
6.011842279443476
6.317361075989257
42.84330391298298
44.29599994754515
7.431670498781697
7.870123248637472
8.357817497254549
50.80230532614686
52.57441023039291
54.37678752479508
56.15478023334747
57.8428652329501
11.96706188741687
12.57987337662179
13.15472260504126
13.68566753393202
64.43846843286637
65.31466628183686
66.08873857492014
66.79357779113461
16.00740882193661
16.47950565212745
16.97070164150465
69.7767196664178
18.83480708180925
18.13775165247168
19.58836726039397
74.03114586814534
21.26042668446188
22.16858268419054
23.09916718167801
78.90347336566299
80.06991254609306
26.01923695906742
27.00227067685601
83.33683896996993
84.29521968140175
30.5951268895401
29.75242019626801
31.37716612518393
87.58417567664198
88.19307444386007
33.53298669669669
34.2160308235246
34.90139852262206
35.59697305717826
90.49631737172601
37.01048298455895
37.72915071656124
38.4533902086883
39.16570864875069
92.28623881397907
92.60174197036237
41.25696985470982
41.96689455296925
42.70005613910867
43.47825435810397
44.26553019188773
94.23147743969758
94.4711399262052
45.14665463504591
94.77569246183772
95.09331536503312
95.42220306458586
95.738545182312
96.01201429568728
96.25921428378813
52.43405104865015
53.24654880858397
53.98490646455631
54.65448279794652
55.25688866506302
96.46969314890849
96.3081694301532
96.12120324595234
95.92445730837842
57.61052253808209
58.09837175133444
58.62013996100723
59.14053965310509
95.29675287200354
95.24203378499064
59.74095076639561
95.18025115858465
95.09743784245383
61.95540280469805
62.45619058232797
62.92629722056827
63.37036162720692
94.06697984055083
64.19904652775502
64.59962572915019
65.00084092782365
65.40672048248855
65.82890020984107
66.69303337078338
66.25967410814316
92.94251948628974
67.85246237526705
67.50286346384341
92.03411732332223
91.80866588723356
68.46777634836108
91.61185340707466
91.43320907718899
69.30400665841638
69.40777966198962
69.69959229484066
70.05660890754952
70.22436590372429
70.37472938520889
89.93587280191423
70.74959713368347
70.98032201675417
71.23932959714818
71.53473705389295
71.88997295042959
72.32994919326239
72.88678076246495
73.58847282840699
74.48986135593073
75.60322117320905
76.96839621296539
78.40462337138395
80.34549838340456
89.42483059794289
89.70315933529257
84.41826841840373
85.76648817260762
96.85102900586104
157.5880206524964
319.0120886210439
351.6907917171736
350.547341760933
398.1801979133274
398.8699335541048
399.1691508594098
358.8014456491535
358.9199163820863
358.9199028534208
359.1203170158846
359.5141781791648
359.936960262034
360.2200036122526
360.3661985113422
360.2918719038816
359.8394671398137
359.1423650018306
374.8945167274847
373.5852513506403
372.8941768010782
372.2655460586961
360.1233481067098
360.5136775857499
360.6820812841601
373.0592118835747
372.9356837249037
372.0098761593857
370.3406518417915
354.7728582211451
352.3312334924946
351.4931996467446
351.1559088539028
351.0994257843735
351.2548137582119
367.3590131798163
368.4698434084273
369.3625565608054
354.3668094018901
354.4721450042075
354.4723147714762
354.3033763905248
354.0846847362328
370.9469167254553
370.8230113666714
371.0281552401023
370.6829111267476
369.7930515147352
353.9125926831935
353.2002999049968
352.6839054081183
367.1632229656648
365.959468918811
351.9291848110846
351.4764755839088
364.8927184645643
364.5606520739495
364.7138722034121
364.758799664577
363.4821936212348
350.107151344767
349.015119107527
360.3215340110008
360.0547918464496
360.2222944191973
348.2988837375463
347.2955505222232
360.0633526223476
359.2760458521187
358.6835137820561
358.1798685582631
346.3464002477227
357.5397689368068
356.8618805197098
356.2921782584436
356.1488526450773
355.7124504300155
355.3219058122288
355.4882200426346
355.3461398669751
355.0353532173984
354.8366933545219
354.6517126903273
354.3471507524326
346.3713708048693
354.5842105015179
355.3377856346582
356.5899955720019
357.4780842926857
357.7260297414077
348.7548859156744
347.4380943061997
355.2967831517955
354.3253973973735
353.5061179121822
353.1976999627627
353.1170432151256
353.2619594543326
346.2636298088297
346.8274053877744
347.0893194931251
347.3387887602462
347.7473876006873
357.1620554736176
359.0790851168147
360.2901133966498
350.6468447198725
359.1743600837327
358.188172284419
357.9085749069179
358.0778238488601
350.4197863172915
360.0978312245526
361.2471963322193
361.9087076671955
350.1632839288804
361.4631141144459
361.4552751594047
361.8262872352567
362.5337516436194
353.1716575273447
364.4240844150471
365.0710222858297
364.8911596050479
353.0346914970577
349.5404075524692
361.1702919997517
360.7388566319287
361.1226819174033
362.664862429875
365.1280406686516
367.8762875272816
369.9815580775435
372.811241849607
376.5904619254687
379.7422036285579
381.113182034292
366.6120750085928
382.4453106325948
367.4937721771393
365.970927964529
389.4726474003491
389.5389476477271
364.2840832962544
363.3638208760276
360.7563066286916
356.8878712890296
385.6032940539286
384.7100899091884
384.588174577817
385.7814825876695
388.7057861372753
391.9341326627174
395.3129609472543
399.8572103065851
368.4570168711601
411.1535862135783
415.1866778517707
419.132399963503
377.3705842670931
423.6920864392978
424.0330019689987
424.4995272490679
424.9618129523703
376.029316658872
376.9217491491891
376.5521457621169
430.9007199766307
432.6903897580236
435.6537706333242
439.4960349754923
443.6361663805424
447.4613708092222
389.1395255220288
455.195208258745
459.8830716522858
465.7102179998988
472.8001203710054
480.2815046852126
486.5600058868052
419.9689489238467
424.7332629133323
501.9099016211882
505.6132370603
508.8077329019321
432.5772819584695
513.840972741255
517.3691322726679
521.7966239914493
527.1471160775329
533.2556985485799
540.1535639884651
547.8894253690589
556.6943776587398
566.3792943700448
576.6912605879388
587.9743643961893
599.8361829078726
611.6150068689642
622.5882315043914
528.3863560410296
532.8915284040277
538.1184718173682
543.5034136780988
653.9295685937434
655.5865159838901
545.1880077380613
544.5312836112178
653.670856271473
652.0304611840911
651.291485263249
652.5922303631567
656.6532746770109
664.3259711132198
676.4624112149443
692.8070073748902
585.7955680482274
600.779618116016
613.2341498815268
623.2206183081948
631.8525715365803
774.8362493711663
782.8491271318762
790.0811718208903
797.1200533733596
804.707793384726
813.0117426065773
673.9800674238422
830.427280470229
841.6150616913478
855.9546659362328
713.5184469084683
732.4246590703121
753.0693892622653
771.6466275648507
786.9155008939898
800.8612015901247
998.3862760949883
1022.019157818933
1046.560942319064
1067.993420748805
1085.55361165188
909.4517112999201
1113.946020612814
1127.335218047734
1138.47377548885
1146.536179535196
950.190669456495
1152.27350949409
1149.128473777985
1143.129121303854
1135.682454396467
1127.304558971041
1120.080590218008
1116.385753213458
1116.97184560893
1121.212072654885
1129.434950447242
1143.082285355309
1162.574530120767
1187.058439870057
1214.801934355011
1242.230905727465
1268.20724302877
1292.853859713045
1069.287726718409
1084.728669782485
1358.231368315824
1384.410838425059
1416.076619994434
1447.929217010982
1476.568136739573
1222.173915551447
1524.7129318655
1543.109767352647
1560.596296823653
1281.031288333235
1291.998543038292
1303.82034176687
1622.78925065193
1629.499305762156
1638.224204794612
1329.678877481454
1328.124265146907
1643.453738127127
1662.999481982087
1700.090022340338
1746.211842785096
1803.093780309347
1499.924799758854
1931.472170353293
2009.845176314455
2087.470394897166
2156.627240746919
1743.748380498877
1760.532745691455
1759.304767229962
1740.034247010434
1729.141731935628
2320.394789016449
2156.723880436831
2506.239980831493
2266.295781361956
2662.540882103135
1890.264522167007
1390.525630636119
4.710716473445504
3.591655899744419
3.227419546209283
48.03054758079492
2.92018793437317
2.866456394004221
2.847873834101566
2.845963661756878
2.853313377960909
6.262923656934632
4.701497020391129
3.712380756872456
3.108662775734536
2.758194084861409
2.578494629999486
2.510501906972573
2.544457987902193
2.572889092977497
2.588190332482452
2.661548703817026
2.731227095945048
2.826734361972823
2.940298057440262
3.081472378798922
3.249632158808347
3.445062714658079
3.768833676457641
3.431998325976079
2.861807418586441
3.53196952389852
3.523416290898022
3.244444012138576
2.544479741659838
0.5558078784246966
2.2090396019468
0.4863347713922671
2.195972934677978
0.5647694146864468
1.198641738172177
2.194792834512715
1.383527980439591
2.161552075707809
0.8540185992948012
2.123394910886935
2.149550600881449
0.06818244414600499
2.159128022008786
0.03219383687362695
2.126826818898981
0.03583798176350365
2.07387780379864
0.0384562171802172
2.039854054891201
0.04187210856853658
0.5769322096494509
2.019432093046675
0.5110463746099044
2.005121681011265
0.4671883656930426
1.991862464601278
0.4286118495644072
1.979286982630994
1.969348763378602
0.1438032210869683
0.341142888039366
1.960567244241533
0.3217108980785665
1.951317619761079
0.305597643594309
1.94065453607638
0.2947980877567271
1.932174405261122
0.2924924625008032
1.926168056980424
1.920424591336548
0.13495627843076
1.913364640297408
0.1399614448890784
0.2780288712892031