/*--------------------------------*- C++ -*----------------------------------*\
| =========                 |                                                 |
| \\      /  F ield         | OpenFOAM: The Open Source CFD Toolbox           |
|  \\    /   O peration     | Version:  v1912                                 |
|   \\  /    A nd           | Website:  www.openfoam.com                      |
|    \\/     M anipulation  |                                                 |
\*---------------------------------------------------------------------------*/
FoamFile
{
    version     2.0;
    format      ascii;
    class       volScalarField;
    location    "1000";
    object      Ma;
}
// * * * * * * * * * * * * * * * * * * * * * * * * * * * * * * * * * * * * * //

dimensions      [0 0 0 0 0 0 0];


internalField   nonuniform List<scalar> 
104311
(
1.269435277050657
1.495880777295201
1.662315146550871
0.03346806647918328
0.04437752432614761
0.06097729050335708
0.02963630490928188
0.04166771388702557
0.02805883726105508
0.02718296197175163
0.02526409458045805
0.02627985015886555
1.932102659512891
0.01691431338595217
1.943548399508645
0.01337308623180352
0.02452819844485436
0.2327276427379839
0.02475847929035777
0.009465846066947031
0.02483787181551108
0.02483788820133457
0.0040842418754933
0.02468487890234913
0.0001448016080175442
0.002487651919907595
0.004378083581529531
0.006250873850911541
0.02423316595062773
0.02425409381802942
0.00771283481736648
0.02435498856434436
0.02444320148982719
0.008803382661879139
0.02438324215787002
0.009580846157020371
0.02422272911692504
0.01024973280248861
0.02434535245394208
0.01090153169663901
0.02388052696324972
0.01151428340863601
0.01204783739447919
0.01252529164812148
0.01012843087293836
0.009703896400971863
0.01299555062941259
0.006340163534284154
0.01348729016900447
0.01394832269301673
0.01442727157165717
0.01477700488413267
0.002984793172943769
0.01492253117719811
0.003828456146057018
0.01508163592206622
0.004768359147183629
0.005570983578289897
0.01536470757977272
0.01561639728898909
0.006396253212027773
0.00638632911745155
0.01585922285129494
0.00626708351996337
0.01608410042001694
0.006098414756554452
0.01633052077917894
0.006004402136779779
0.01662982245343162
0.4035053459992561
0.01683724201169351
0.006333064074556405
0.01699174376693632
0.006383324430696562
0.006364137192736331
0.01713552390241155
0.01729206262410415
0.01742879266714616
0.005937039792669676
0.01746954329780867
0.005778641737923881
0.01746762677946925
0.005571778804033381
0.01750151615344354
0.01759416777177949
0.005212101211296915
0.004948030011923076
0.01769678373401343
0.004650785924396706
0.0178107543451244
0.00439103881617014
0.0179475086193917
0.004200140984593335
0.01809534361727388
0.01824794226440524
0.01833243430395985
0.01837837521704939
0.003699462517224565
0.01844075254704307
0.003407657389641184
0.003112897261071048
0.0185146596768045
0.002844695814942505
0.01859046147513588
0.002630090180878846
0.0186447515258032
0.00244208776047752
0.01869722595132061
0.002075675941954647
0.01875308641303457
0.00200392487062146
0.01876289072024239
0.002408145130726151
0.01875781201259632
0.002619065964913834
0.01876787179818151
0.002774850080121015
0.01878682990389267
0.002898671986254822
0.01882679747174928
0.002993197804240011
0.01893377730387555
0.00304499280941608
0.01900589664119858
0.003015794622293743
0.01903443528900327
0.002909069310673296
0.01907187475163317
0.002756579812152745
0.01914117061895644
0.002614210729136569
0.0192156594183205
0.01929248147991121
0.002346411993878186
0.002145623122358842
0.0193875058629264
0.001856509769676328
0.01943264987275046
0.001562545256189409
0.01946535530695441
0.001307062005689574
0.01950244126119018
0.0009763645127300468
0.01953499104872164
0.01958053074349874
0.0003218577375299727
0.0196663927015397
0.0001488382047028306
0.01971174364652071
0.01970945109349119
0.0006138385719532412
0.01970305105853078
0.0008186009037591414
0.01973043900630278
0.001103525685938001
0.02006354507410334
0.01944167272663475
0.001324638160840291
0.01967510403189428
0.001443394784246642
0.01983897809042918
0.001621220601575592
0.01991096817222061
0.001783913906008238
0.001920238897529712
0.01993514966925119
0.002066196020155122
0.01994814236101117
0.002312381370141379
0.01997562828138987
0.02004634234532716
0.02008047287455887
0.02009822286381442
0.02012349901431256
0.00314543760772854
0.0201393989031992
0.003303310855284429
0.02013220225540357
0.003504124678205345
0.02013939816481919
0.003685981762757901
0.02017223270366202
0.00383837857187792
0.02016531545826499
0.003967898700162916
0.02013802934443906
0.00408517670179535
0.02011222583245768
0.004228834479443822
0.02008087320204452
0.02005774552502212
0.0200524204994391
0.004563037302455401
0.004650078021045736
0.02008151206118267
0.0201722731218743
0.0202343012317634
0.02028498079150855
0.02034750328270026
0.005417789196559721
0.02045085340097173
0.005502658345720081
0.02050269007451767
0.005680228225078888
0.02052506384397459
0.005861180911136493
0.02057268335975257
0.006000131772642802
0.02064207740695586
0.006134273589993629
0.02069369627439526
0.006264046383203697
0.02072448305680411
0.0063798137292362
0.02074174160962117
0.006493349546272084
0.02078832478336264
0.006606666818038551
0.02088222154811953
0.006718074467147915
0.02091876552527271
0.006824424451809133
0.02092549038281414
0.006939500618137746
0.02094804054404018
0.007073589944619037
0.02097844845910209
0.02096978055145508
0.007210848997192977
0.02096397567246125
0.00729098696935952
0.02100126572820894
0.00743671794455027
0.0209954207000776
0.03717541978371696
0.02098326708532493
0.02096613159959744
0.007754332580096608
0.02085039375260487
0.00782437998410771
0.06058357862334731
0.02082706204795857
0.007931376609666122
0.02076456900327351
0.008031698154299849
0.02090554906189399
0.008123791605031775
0.02092932451380306
0.00824022636569539
0.02108986770561444
0.02060442097685019
0.008380121734738956
0.02082967243850521
0.008438559523385191
0.02093829752664986
0.00851755073299448
0.02104226921912108
0.008603450486343671
0.02125160923315021
0.008675248418596555
0.0207967539011017
0.008751626954984913
0.02104782694633012
0.02117225674567802
0.02122115291753001
0.02577479037199761
0.02124745288314125
0.02132480675511753
0.009061465098323184
0.009072240619050509
0.02131744010171427
0.02129295051047237
0.009120789489075746
0.02123310407279069
0.009222401646183572
0.02117671829832595
0.02118085808198204
0.009373848346642255
0.02112822331361917
0.009410440594407496
0.02113030804839256
0.009490590015360758
0.02115689307565511
0.02112465629287056
0.009628015880197072
0.0211036157192374
0.009640373418103232
0.02102692824993297
0.06252626595494221
0.009696692277799275
0.02136116996061675
0.009768379275153942
0.02100195760467572
0.009816518812349802
0.0211824452292905
0.009850443087488106
0.02121453881905571
0.02122237889455976
0.00990135644712762
0.021180913372164
0.009976826907879724
0.02110216557998133
0.01007643751475785
0.02097058715866149
0.01008473608911982
0.02087286929904863
0.01009753791679205
0.02083841321357619
0.01012213122288235
0.02073372714129554
0.01015521098151816
0.02059636721830984
0.01020672252592473
0.02046697713413832
0.02036582847220415
0.02030010435920193
0.0202361441351378
0.02017387917237331
0.01038066235064251
0.02011707415479216
0.01037246751933096
0.02006251507938806
0.01040867781337194
0.02003008334729338
0.01043818939068316
0.01998943778308516
0.02000129419231187
0.01046868804428206
0.02001914804005087
0.01052806053510207
0.0199859593677864
0.010571415444301
0.01995809522325859
0.01059580700565762
0.01994838577279071
0.01061937329471951
0.01995804965984902
0.0106523916289401
0.01997647616295883
0.01070286935172626
0.02001543765383204
0.02007996125839128
0.02015483633426218
0.0202344107204509
0.01083976868588082
0.02033789423296768
0.0107827256552632
0.02046003383761766
0.01078695557309231
0.0205900526420931
0.02076697459516083
0.0107990038669172
0.02089166988022438
0.0108205883831203
0.02105960255379405
0.01083413988917491
0.02120273191114561
0.01086118909989723
0.02131518814776582
0.01091346450599127
0.02139425682474261
0.02150074942433622
0.7000057003063532
0.02156848702343861
0.01099795045012143
0.02165201432743477
0.01096770076185585
0.02171706885901487
0.0109905653771891
0.02176496809208964
0.02183602435521243
0.02192947063293727
0.0110730237134038
0.02209504081520785
0.0110498415757831
0.02225074163680214
0.01106616396052611
0.02237446840956907
0.01112803921676443
0.0224624615118957
0.02253473251934344
0.02255725243444925
0.01122962803258638
0.02254687096542964
0.01117476910213674
0.02252593449765725
0.701203615221788
0.01117063549186302
0.7055413736612876
0.02236871973922134
0.02215679601399803
0.02190886784107815
0.02170636048556772
0.02152787728924773
0.0214027512891886
0.0212151969758417
0.02105343017568254
0.0113354533299385
0.0209614555466279
0.01127716319456569
0.02093961571458457
0.01128419538158616
0.02095224929336838
0.02094289889034435
0.01131667705845759
0.02091380937221097
0.01133495720566033
0.02093339716640566
0.0113659242171102
0.02086242717344161
0.02076309488903977
0.04527370388436316
0.02065781235492665
0.02050943522628423
0.01148498416254144
0.02041117503194681
0.0114018355051661
0.02024371353605869
0.02005637095608151
0.01139542642686452
0.01990125014513243
0.01141609941458433
0.01977236895098793
0.01147128059303385
0.01969229128550497
0.01965688102622988
0.01965060284118182
0.01154487982121614
0.01969059521999728
0.01150317728889981
0.0197898641509209
0.01989665326392715
0.01151574405881401
0.01995996406012887
0.01154831486380758
0.0200126331516202
0.01157459181747615
0.02006925457188916
0.02011835108985074
0.01158471415690046
0.02013950953572851
0.01160836791088198
0.02014404070276633
0.01162486533659645
0.02007420042242731
0.01996342278288411
0.01162081420255156
0.01983702684188811
0.01163598750703257
0.01975870353947768
0.01163851188653173
0.01960234484407883
0.01942467777235791
0.01153148427798887
0.01929533730736325
0.01923251847443398
0.01151077685726068
0.01912105868585162
0.0189930360709778
0.01167176412593916
0.01889128925587427
0.01172762261879957
0.01886075656143219
0.01880072487874404
0.01177432284536248
0.01871895313627616
0.01867710237879694
0.01867076716133027
0.01871683882782718
0.01186304804163553
0.01876536906974971
0.01181280257794301
0.01878159162370024
0.01184280976063682
0.01879941509449387
0.0188018230850672
0.01197347404815592
0.01879748032310289
0.01882127934329288
0.01880611027738362
0.01197479663221924
0.01874593519820981
0.0118991078081922
0.01860870674303997
0.0119025131682427
0.05428936978277763
0.0188125432286983
0.01846360380249005
0.01193159840773934
0.01859130773096232
0.01196913729597559
0.01861820020874414
0.01861943530042652
0.01858211060647569
0.01850967053234859
0.01207651078561136
0.01844795128843717
0.01844036120770013
0.01203138096165903
0.0183733477578826
0.01825316426794751
0.01812444281929675
0.01801559590729624
0.01792556695319391
0.01215034088646106
0.01785393009348942
0.01208092685581609
0.01779219839790882
0.01777709157046838
0.01209521811308983
0.01778245766314261
0.01212982666924169
0.017766524481425
0.01217515647544661
0.01774745252188613
0.01774438523096009
0.01781197745701485
0.01786960069837115
0.01786393360709434
0.01784584715108575
0.01783546405696525
0.0178289781750003
0.01777895591678992
0.01231787265169607
0.01772690383949955
0.01225921797598676
0.01772029955775054
0.01229244934583837
0.01766969927676017
0.01756047212154038
0.01746549077820358
0.01743753861206166
0.01743937537295278
0.01742993802037788
0.01742665473951886
0.01747473722053364
0.01748204533670746
0.01746645534511236
0.01251714558382497
0.01744681226891504
0.0124873279965278
0.01740917572483196
0.01250001018261882
0.01735096076677724
0.01727548191476428
0.01253069644410936
0.01723067454324795
0.01722761036491387
0.01716268044755979
0.09972512184721508
0.01707812263506976
0.01701852771864393
0.01266947771466171
0.01704366337237882
0.6151188606948175
0.01260920482049348
0.6146815401767012
0.01703833074385815
0.01263712070372217
0.01701017834600048
0.01699946172076222
0.01268669090157486
0.01700528328547429
0.01272025228910088
0.0170481158357361
0.01273108147395608
0.01708025060828595
0.01274750685777393
0.01707149205207597
0.01696646880325535
0.01279447391276587
0.04834232819596146
0.0172695968686314
0.01684111400510768
0.01691324863626807
0.01293874198773754
0.01687135563248351
0.01294540264837574
0.01681098485725298
0.01675501961986093
0.01302924531372163
0.01674092121761015
0.01316479117126255
0.1187242570368
0.01666773906272214
0.1928111749717885
0.01653503479122762
0.1943690611166192
0.01642022097560588
0.01630119752974184
0.197889848371435
0.0161833708649667
0.202423056876775
0.1443149038470606
0.01609210907894168
0.524619768860894
0.01608471065759634
0.1892180203524597
0.1950984617976112
0.01600938440475999
0.5549852178523178
0.01466778289370633
0.2322132379051598
0.1374903862202208
0.01589628669705201
0.003141256061419232
0.01586503596557619
0.009767000991484328
0.002257373351159664
0.08188261925912789
0.01574364618240943
0.008857726972168448
0.06986432830894063
0.01560585554072925
0.02097370676027019
0.0168056942784406
0.003062844739665397
0.02090081803763042
0.02367298378706387
0.1018080128699004
0.4253500945494214
0.3084816727727638
0.500703528002919
1.495663782772763
1.812131295288285
1.852566411311284
1.86308584490582
1.873955205584521
1.88511237809235
1.893259564563024
1.898282351013844
1.90270402635898
1.909217422942145
1.919961072053313
1.932585818842804
1.940392606986956
1.8979962967107
1.919296427567696
1.866627579134017
1.030872798760095
1.056091650120156
0.9619170868676619
0.410857853478647
0.436465582187777
0.4417457976333218
0.4794268491100478
0.4752713314197874
0.4831687787364846
0.486930897437069
0.5027998125658656
0.5179008120793612
0.5206640151974963
0.5233963751940308
0.5368493571146148
0.5530732579082643
0.5576194672955116
0.5554377264900026
0.5695470375573137
0.5782336382538878
0.5800789995813718
0.5908560854213299
0.6004183785878004
0.6058611702975544
0.607418367199576
0.6088665534146933
0.6191983321512176
0.6206444092696268
0.6218260565761077
0.6274137282081906
0.6267807451865496
0.6306885898812449
0.6315191525316117
0.6319131151855453
0.6343611190597904
0.6415001955194037
0.6450718811791429
0.6471599052667603
0.6546366076226905
0.6563655056332398
0.6707686490808555
0.6687683243100765
0.6721511822361417
0.6739082585516667
0.6906455037222553
0.6917218752872962
0.6935786371643997
0.694818146866409
0.6960294479647199
0.6973536826665515
0.6984353061576024
0.7043905813313905
0.7027933121661337
0.6989689752861539
0.6969033090898158
0.6960042649517821
0.694385140613709
0.6955805483783063
0.7070505180968073
0.7045945890700439
0.7054101800740108
0.7037203826803811
0.7047265425219642
0.7098972577780778
0.7102962879336253
0.7110549904812251
0.7112089166341985
0.7110813254266726
0.7042086920805319
0.7062064609335167
0.7027165566231519
0.7011645118386459
0.6954541744809044
0.6925910225607639
0.6911842922979716
0.6902752104123278
0.6879660799919973
0.6868923862374381
0.6803339670157196
0.6820105103228368
0.6745844367737206
0.6690047400078021
0.6670019350322022
0.6537505433503537
0.6531324346649259
0.6524866234787866
0.6520099236805716
0.6515100876959342
0.6512017075314898
0.6510581908529256
0.6516450057659898
0.6506135670416987
0.6493486660391349
0.6474604973090254
0.6321343743144461
0.6342428552594872
0.6306863222003102
0.6241269865418009
0.6156851736685721
0.6140249463175265
0.6143671418303807
0.6079100961375143
0.1422559289168568
0.0652658106791725
0.1561506856920637
0.115524485140929
0.113080822856859
0.1111813211176942
0.109451744357552
0.1079012603399524
0.1068054387149477
0.1060388117421131
0.1052781151740422
0.1045849397060545
0.1041044410245176
0.09854054969053315
0.09748996161786275
0.09392063827796662
0.0931570201589119
0.09229828331743826
0.09158648361441946
0.09097635803557806
0.0904250224655304
0.08659211358567587
0.08568690054787971
0.08470384214132431
0.08380474108734012
0.08299774915962078
0.07759177889194528
0.07683402515207845
0.07599930322112571
0.07331505719083251
0.07258972383856958
0.06909486185471075
0.06845462186498215
0.06438620128522084
0.06382566137729158
0.05934426116878285
0.05051707401548353
0.0442012038649001
0.03845836118428159
0.03774715362514935
0.03703190000245851
0.03641545986824817
0.03569559270850779
0.03192029498292225
0.02660288675962667
0.02232967547866511
0.01683642583605357
0.01308156470906626
0.01218335604103332
0.002301254187925029
0.003279190257299946
0.007656992502482005
0.008820196011613856
0.009907543240678395
0.01087068112775193
0.01710822418076767
0.02094540063914625
0.02680642388274241
0.02766872972957075
0.03262860806815166
0.03825232700383417
0.04291600248895812
0.05175006057000443
0.05299171819961367
0.05495388839751081
0.05711218716195588
0.06257913547488611
0.06428829424643577
0.06580197552532552
0.06590199990486693
0.06707095496081897
0.06907541112776699
0.07170652183572269
0.08303742347974147
0.08494103572431111
0.08555042749920903
0.08654834355782057
0.08827003236597761
0.09091491252424003
0.09455595101627565
0.1258571958616191
0.1454357265089321
0.1707028720559454
0.1726117159290425
0.1944188451599372
0.2012720593395617
0.2010489522337466
0.2012530172831019
0.2014483186961889
0.1994877794220939
0.2010641039652449
0.2150685372946978
0.2195308840713738
0.2232632255552549
0.2230242114400486
0.2118081591398275
0.313516346247379
0.6390502179655952
0.9803789744796894
1.285160713702791
1.789767379817917
1.805729673219482
1.808807355267804
1.802058877105255
1.815905905721254
1.820368020674914
1.826562142661679
1.834474095479654
1.843444192446267
1.841991203973846
1.852124679562542
1.863024879350094
1.874838420209479
1.885508342877794
1.893756557369186
1.898017462983716
1.902983593775402
1.912500675727852
1.925174410007722
1.93686203515959
1.94291998788249
1.93973506140996
1.930990177872664
1.915754315697779
1.89177618862057
1.85314980426862
1.801476454439947
1.728574521129695
1.613560831934333
1.428453989986562
1.227435308213531
1.08535347195781
1.078947537814173
0.7489531265472565
0.5962515692457221
0.4781051347884617
0.3843168532850436
0.3067286099450624
0.1642216546976715
0.1072089476162422
0.06284357958895735
0.04465971798551321
0.06202190715545539
0.09139764341149242
0.1212736592073725
0.1492046384885714
0.1747023004742596
0.1978787701390127
0.219062922685105
0.2384690988294327
0.2566058891646604
0.2739125557475749
0.290812349101016
0.3062940272207728
0.3201784196487518
0.3326376300035939
0.3432783219844535
0.3523558195709284
0.3613010344920306
0.3698467312107473
0.3782605729910599
0.3867932639901601
0.3955174573377475
0.401171165755187
0.4089447524220657
0.4181240678617878
0.4249284713460169
0.4309861515210364
0.4349669283243249
0.4400239491110843
0.4468538560505551
0.4513161072783667
0.4555714870753791
0.4595240429977048
0.4632747972665608
0.4672212484982992
0.4712115071304991
0.4740827996496326
0.4781014060593535
0.482132994145453
0.4859967474202532
0.4905726858243091
0.493949823363848
0.4970857958442237
0.5000201314484848
0.5018959298629991
0.5053424662310885
0.5077839098027326
0.5102097041885429
0.512706902780965
0.5152713228811299
0.5169619770122408
0.5203119602553089
0.5237087994390536
0.5262102786128504
0.5290070905325985
0.5317105229078377
0.534304158383186
0.5380881503071409
0.5395536735492287
0.5421270316175064
0.5447375946457135
0.5473705913595053
0.5502671920083855
0.5513688824512497
0.5528945106362952
0.5546444768574991
0.561917034141362
0.5598054817294765
0.5639220646274877
0.565706260355889
0.5676783757450437
0.5641612468119914
0.5731691650626446
0.5714017410176178
0.5748606008536939
0.5765110442759436
0.5713939192508863
0.573169701691431
0.5818235574690545
0.5836733348355841
0.585489621187316
0.5873986253932566
0.5892811594808255
0.5817310609786659
0.5936424778834353
0.5924743220773311
0.5948531416985504
0.5958810999264742
0.5969841928798696
0.5982447854064957
0.5994399362457428
0.5901429348698941
0.6017441364142819
0.603038283184046
0.6045572090631718
0.5964125971248991
0.5982697098557678
0.6001102774903508
0.6103799772092976
0.6118438031590794
0.6133318291515626
0.6147533291817525
0.6161955221490465
0.6179466660940732
0.6124476375455662
0.6141402099627516
0.6156938427584336
0.6229692789928736
0.6239331644826713
0.6249341030504375
0.6260104036319665
0.6225803611976155
0.6240100977382234
0.6281227752638532
0.6288227313414583
0.629609907966487
0.6305253656073291
0.6297814246416426
0.6311743816478965
0.6321369468481857
0.6322545274370786
0.6325239128201261
0.6330927528251685
0.6338375199187587
0.638097085618709
0.6352561020009483
0.6360675016304461
0.6372251469894844
0.6382970565352327
0.6393672865709732
0.6405107208748821
0.6481690324302416
0.642503596676002
0.6432923889377998
0.6439776796105293
0.6445241897064514
0.6533485064337694
0.6462240042690844
0.6455958186100239
0.655722521217355
0.6479640613555324
0.6490869223184952
0.6503847575317975
0.6616906621014439
0.6633666421384479
0.6519107229173868
0.6651899568641815
0.6583260280101431
0.6604228584389626
0.6626604352064898
0.6646918491014571
0.6676303577264985
0.6660312194773428
0.6787948684133287
0.679533405677472
0.6808106971391581
0.6819408416998878
0.675614334297552
0.6774145841602649
0.6790292546494928
0.6806343619283308
0.6824889520875475
0.6845261706288741
0.6867207305548227
0.6879466568855916
0.6941940170987325
0.6951661249361679
0.6965236830689717
0.6973532385993527
0.6980511305912459
0.6989147208346411
0.6995560849469321
0.6994470045794358
0.7005214165753894
0.701325170889522
0.7020505978546698
0.7026954121419933
0.7031584844302715
0.7037250142081191
0.7048602133652315
0.7028386975295638
0.7045424076471152
0.7043853913048339
0.7046882577896427
0.6979883910129934
0.7030830526615335
0.6966661635099075
0.6946803801390973
0.6934254640578961
0.6949558527838232
0.694102167919494
0.6946845044811383
0.6901862383208418
0.6912516908326913
0.6965565603337509
0.6979573440117555
0.6999696179892674
0.6956185097369257
0.6972357036215157
0.7042114927069398
0.6980095311991495
0.7075449819736453
0.7074803654611681
0.7068376146304731
0.6954710678374711
0.6938822945501295
0.7061851245186086
0.6922838822563988
0.7036675877043659
0.7028597004918999
0.7025493659724212
0.7025212563445216
0.7026630984810261
0.6880503108456855
0.6884094815355143
0.7058996016188355
0.7072054903755015
0.7081392585969871
0.6901400452947448
0.6897202239263673
0.6894737352736879
0.6888221747484927
0.6880033733234356
0.7107767466337547
0.7100438791413616
0.7089222763252176
0.7077042523609032
0.681943127078275
0.6803603701669588
0.6787638475331891
0.6770696205522564
0.699581174302965
0.6979709662801833
0.696968939750474
0.6708114392128789
0.6936616054025352
0.6947857509107217
0.6929844056403027
0.6667269518995983
0.6922755931441097
0.6920505564471744
0.6914244999331427
0.6638980733294021
0.6626738394081111
0.6895994420416927
0.6886201001627081
0.6595160868613297
0.6582042648080918
0.6847765841769411
0.685907809734536
0.6834573049793071
0.6525525723350893
0.6509948094029946
0.6790035416467041
0.6776301366461301
0.6764797486101858
0.6756334091145254
0.6445762434179283
0.6738863861584505
0.6730902210332874
0.6721748394626577
0.6710736915913889
0.6387635871784706
0.6367383515265737
0.664714660516674
0.6624448535862658
0.6602155856675486
0.6581780806420564
0.6560426327026665
0.6229593055287476
0.6222174510736403
0.6552085136261587
0.6213230056495729
0.6206534150228852
0.6200621446883996
0.6193611490559094
0.6188167575843239
0.6184171429240309
0.6509758346370184
0.6511840486929842
0.6515981536756099
0.6519575123908419
0.651935356493471
0.6188615483400394
0.6181884666246289
0.6172084492091331
0.6156009936108804
0.6452526403769858
0.6427779803819115
0.6402999384135353
0.6378890434262784
0.6034505797996759
0.6023893366038163
0.63641295255441
0.6011109303173454
0.5997064410879523
0.6291992849744608
0.6279357453741824
0.6266672166649447
0.6255782956372473
0.5936279432908855
0.6228739350931802
0.6215210895253902
0.6202084593935178
0.6190108812052553
0.6179429456646475
0.616304068631443
0.6170858725750443
0.5857919342852075
0.615190512360963
0.6151042539325585
0.5856589131229463
0.5851379245645749
0.6146476390602731
0.5847946500793495
0.5843476614642573
0.6133328618094508
0.6127071783337381
0.6117771056248724
0.6107920120398078
0.6099188905301154
0.6090275520239027
0.5798063149957244
0.6066595024226999
0.6053198498324821
0.60381777399585
0.6022826587013345
0.6006593760948583
0.5991102354373737
0.5974128387931681
0.5953981196388896
0.5931970611523699
0.5905881652898771
0.5875437400785359
0.5842418841908349
0.5800725789469773
0.5507142031179442
0.5470714877552851
0.5675271680808668
0.565585259824775
0.195135889165406
0.08061773494958331
0.2161278441296117
0.1981969357062319
0.1979505640346572
0.1441821167560312
0.1373388459266798
0.1296471510865986
0.1819483735577383
0.1765800424767443
0.1726439582169407
0.1701415969365478
0.168338775705875
0.1671534523422643
0.1663709333510274
0.165500399525491
0.1644132371455388
0.1634068738318776
0.1624112602448646
0.1036596557232603
0.1030256934661302
0.102314857430724
0.1014516376937892
0.1571515478627029
0.1560768284917972
0.1550721220963531
0.09668542948033015
0.09616235960048908
0.0957376901784112
0.09510740892866285
0.1524048194542049
0.1521342024997382
0.1513834861107036
0.150643193736695
0.1499651272156302
0.1493445782896357
0.08977056160777155
0.08896537566039393
0.08797634921064085
0.146855663218058
0.1462785047959061
0.145465138968673
0.144707805130085
0.143959867078354
0.08224820672604015
0.08139186236211425
0.08048283738706413
0.07969450419525004
0.0789639767830838
0.1380826411408183
0.1371057992328093
0.1361533482986523
0.07528611768441461
0.07461775690390465
0.133567558819803
0.1326589698682651
0.07196108729328562
0.07148120946468398
0.07102270995147524
0.07063231140003749
0.07023101129578017
0.1275245414010498
0.1263955565983968
0.06767776982678951
0.06683515401469423
0.06581349320174304
0.1224232355775581
0.1216634064684951
0.06336867048952598
0.06288301931164143
0.06215437216266005
0.06102537162405756
0.1161114582096428
0.0583457520609621
0.05755564655146202
0.05680219998434158
0.05604584811134224
0.05543050648910671
0.05477543143688299
0.05402628386737248
0.05335233444759106
0.05280105853708141
0.05234046914879404
0.05198939028822755
0.05159813396105791
0.1021890714027888
0.04992481267605708
0.04920078123745673
0.04844819448344435
0.04779982604485428
0.04688570995751228
0.09485511453312284
0.09327318755779576
0.04317413976108306
0.04234056676083634
0.04158895434550573
0.04086697647327252
0.04028486060008622
0.03962083181527887
0.08437069858735122
0.08334578259564278
0.08227429389537493
0.08126339584206865
0.07992291385137713
0.03490379597916557
0.03423959189397244
0.03340345382059587
0.07497205165591295
0.0309336560763778
0.02991453297953713
0.02893525704828252
0.02796418137839714
0.06711775118845194
0.02579444460264188
0.02489459504112198
0.02384259862685474
0.0614393574971835
0.02132810730315147
0.02028618028476099
0.01923721747516903
0.0181914822992498
0.05352086826227728
0.01609047531774175
0.0152915945552851
0.01439681415007691
0.04784265630972813
0.04643313163334277
0.01127614408263739
0.01039754347127008
0.009588789692377257
0.00895401104097595
0.008386009384802887
0.00777783484845491
0.007046300264403579
0.006389904975357214
0.005785414336020149
0.00509694412967244
0.004149031517774016
0.02569527780425528
0.003083992670140654
0.02590187575336835
0.02510871145923776
0.004601585840925074
0.006005216361797317
0.02063743990388457
0.01903464610878392
0.01755432476718335
0.01641381849362464
0.0117873001607247
0.01255455764132654
0.01324305299554939
0.01384064592644067
0.01445501975624874
0.01498499177374136
0.01545359047741102
0.01608609131667873
0.006811143551651857
0.01781768705901019
0.01867820450845748
0.01973758735242215
0.001588595911142363
0.02184785444845652
0.02277129838803948
0.02370729176541141
0.02460202223876726
0.008983225362667534
0.009815382690364988
0.01032908262590774
0.02850627355270562
0.02937812251423385
0.03018687335527439
0.03087964127015311
0.03147752240525183
0.03202866547077188
0.0158969469248811
0.03309509749903879
0.03364732125751848
0.03433862644930173
0.0349918938796587
0.0356048106140771
0.03624386304815407
0.02512835010230948
0.02667974814085619
0.03944451567539111
0.04081924249923709
0.04199003599651419
0.03030013466502008
0.04375531314876008
0.04456694407473957
0.04536271355583245
0.04605040489295129
0.04663228796859815
0.04716375365976479
0.04769753765454496
0.04824434998261189
0.04881261423360131
0.04937842778245397
0.05002321373577674
0.05070091121850766
0.05121862547351893
0.05139748932916401
0.05319258345958826
0.0560762079482796
0.0576783973525782
0.05860542112656165
0.05927162275934292
0.06123399756826627
0.06200296219530256
0.06193978176466501
0.06585077589464135
0.06708614609762922
0.06772448812868344
0.06794511606963391
0.06787588455141304
0.06758593653891314
0.06706053457465237
0.06644937180812761
0.07071044127821795
0.07551868089222166
0.07884828822749416
0.07981707647658108
0.07969802830753844
0.07499537181750381
0.07837520950233225
0.08079467988134868
0.08227561212431576
0.0828759191793309
0.08315660700223897
0.08760279159166713
0.08331527070954912
0.08380026191561636
0.0844659885504961
0.0979843313366178
0.1019759076851328
0.1065190423923255
0.1101162662584944
0.1117286988166793
0.1120769639976054
0.09909237278246021
0.105188404767413
0.1118869413483586
0.1176758980589602
0.1222188355652212
0.1252583015884296
0.1297740460744975
0.1338993132388755
0.1382464606666172
0.1421437193144861
0.1450449548074616
0.1488210314070693
0.1517818368427069
0.1539588496724806
0.1553545038650238
0.1561845433474265
0.1565288089064794
0.1566897963292224
0.156852247379061
0.1570043557190463
0.1572724300660749
0.1578338063501487
0.1589868949446377
0.1609346212932778
0.1635708487084233
0.1662088479994054
0.1682282120726756
0.1696354667141955
0.1756451727117616
0.1799151510173034
0.1747639507780958
0.1779349124041901