/*--------------------------------*- C++ -*----------------------------------*\
| =========                 |                                                 |
| \\      /  F ield         | OpenFOAM: The Open Source CFD Toolbox           |
|  \\    /   O peration     | Version:  v1912                                 |
|   \\  /    A nd           | Website:  www.openfoam.com                      |
|    \\/     M anipulation  |                                                 |
\*---------------------------------------------------------------------------*/
FoamFile
{
    version     2.0;
    format      ascii;
    class       volScalarField;
    location    "1000";
    object      nut;
}
// * * * * * * * * * * * * * * * * * * * * * * * * * * * * * * * * * * * * * //

dimensions      [0 2 -1 0 0 0 0];


internalField   nonuniform List<scalar> 
104311
(
6.799708082696291e-05
6.785262329880798e-05
7.253243409406442e-05
3.140085208332104e-09
4.59501941245316e-09
1.32224901577465e-08
7.536314837090765e-10
8.325419406310119e-09
6.54172288679345e-10
6.05033746849855e-10
3.506143988336551e-09
5.598470117552521e-10
0.0001093667734637684
1.658809876771401e-09
0.0001093512469389595
1.054804318278766e-09
5.127950640581745e-10
5.014073308476858e-05
5.325216869914191e-10
5.459464850971559e-10
5.429280006804112e-10
5.491866753920979e-10
1.055788629187324e-10
5.465762548441441e-10
4.923290138396216e-13
4.031204103934892e-11
1.237317570680545e-10
2.512219146491005e-10
5.966213556041535e-10
6.055221837938334e-10
3.812336212869785e-10
6.170415648921633e-10
6.251084715326192e-10
4.94416612871392e-10
6.257297969847286e-10
5.825453195229683e-10
6.265597512165522e-10
6.63078771323037e-10
6.393535338696905e-10
7.457384657737993e-10
6.988431903792456e-10
8.271954001290734e-10
9.016977851474716e-10
9.712691500619705e-10
4.277970156550411e-10
3.792469780182653e-10
1.040037527620025e-09
1.615068321218581e-10
1.11271179389803e-09
1.184945348816252e-09
1.265461712158599e-09
1.325869807420585e-09
5.684228321175213e-11
1.350819371560918e-09
7.538260082576111e-11
1.377637632880425e-09
1.024364596681251e-10
1.305791399900615e-10
1.424728066208101e-09
1.46654355496633e-09
1.622340355693213e-10
1.61281381886283e-10
1.507037810499474e-09
1.555499141124633e-10
1.544348870692316e-09
1.478553590304693e-10
1.586541516602998e-09
1.437953391912143e-10
1.640136519431069e-09
0.0003167486902614645
1.674829948030894e-09
1.575892823447654e-10
1.699353386929482e-09
1.595629984908462e-10
1.582804322936007e-10
1.723768674955489e-09
1.75226587212013e-09
1.775658871464827e-09
1.383504344491302e-10
1.779238529393194e-09
1.31429838758383e-10
1.77406332341119e-09
1.228415478287091e-10
1.777619227006985e-09
1.793429636060066e-09
1.087667074909293e-10
9.871581452359228e-11
1.810794691391925e-09
8.79663951145223e-11
1.830035738701746e-09
7.903300610677489e-11
1.853274071099419e-09
7.282166968716046e-11
1.879152546001185e-09
1.905767321381186e-09
1.918406906886606e-09
1.92295945588564e-09
5.778691932772344e-11
1.93229427127998e-09
4.970281190908906e-11
4.214252056898474e-11
1.944432945995004e-09
3.588089441357484e-11
1.95746161167796e-09
3.131754679475817e-11
1.966024094007513e-09
2.772582312876158e-11
1.974267859844809e-09
2.15745848738253e-11
1.98301056805807e-09
2.031917121118078e-11
1.981974270181921e-09
2.733391758836928e-11
1.978019943000636e-09
3.161894878400539e-11
1.977386411339818e-09
3.506669441907548e-11
1.978364394495174e-09
3.796058622723745e-11
1.983654816725138e-09
4.025021983147192e-11
2.002920119672655e-09
4.155222665036826e-11
2.01419829636606e-09
4.092505533032603e-11
2.016027821564469e-09
3.837739077751516e-11
2.020308929157783e-09
3.488870935005593e-11
2.03207558966578e-09
3.170971715865617e-11
2.044370331459406e-09
2.056660167957399e-09
2.625090987502087e-11
2.250889582728029e-11
2.072333615698405e-09
1.765526348705527e-11
2.078331912628254e-09
1.333112874949917e-11
2.08183512053789e-09
1.012213804486037e-11
2.086488065208426e-09
6.949383950397591e-12
2.089851722705874e-09
2.096644021394716e-09
2.873627380055132e-12
2.112175441866023e-09
2.174316018258107e-12
2.11918223832421e-09
2.115230014133325e-09
3.876672753967866e-12
2.111073144192006e-09
5.322472104803706e-12
2.114864226345937e-09
7.818517500381791e-12
2.165478525054401e-09
2.043536165895053e-09
1.015897246396014e-11
2.094031863617283e-09
1.162048838621589e-11
2.127536962037468e-09
1.401039893574209e-11
2.141095602357936e-09
1.640084786510367e-11
1.856396140686629e-11
2.143982977287207e-09
2.107324807352834e-11
2.144318436320315e-09
2.562796485908986e-11
2.147374077274696e-09
2.159329357291962e-09
2.163502315611226e-09
2.164517565851481e-09
2.167627906190259e-09
4.473997728711016e-11
2.168622445618453e-09
4.899789265264566e-11
2.16451953634009e-09
5.481437900372055e-11
2.163921354359574e-09
6.045106196718602e-11
2.169074074000852e-09
6.543334205176647e-11
2.166186813982187e-09
6.986051399836509e-11
2.159162310329386e-09
7.405095659271181e-11
2.15237210554384e-09
7.947180145149738e-11
2.144017018961016e-09
2.137528505217746e-09
2.134906165835001e-09
9.248376611721732e-11
9.601502324802512e-11
2.14005330929752e-09
2.157743638639637e-09
2.169436078178823e-09
2.178458957718671e-09
2.189929864906488e-09
1.298930486244428e-10
2.209047086580198e-09
1.337383014173955e-10
2.217540746622118e-09
1.422509900605922e-10
2.219086267542644e-09
1.512995491768919e-10
2.22690542786869e-09
1.58488624791271e-10
2.240093974424445e-09
1.656375764558779e-10
2.249079544207686e-09
1.727129712855282e-10
2.253158091269093e-09
1.791736665988561e-10
2.254317938590971e-09
1.856570321510175e-10
2.262379986871366e-09
1.92263736203259e-10
2.280187777184389e-09
1.989026849011366e-10
2.28614627732108e-09
2.053419945743478e-10
2.285085300600778e-09
2.1244669224524e-10
2.2887195637294e-09
2.210201854696543e-10
2.294853352520878e-09
2.291863953043491e-09
2.302641734336665e-10
2.289757614396119e-09
2.353387676247088e-10
2.296697866777108e-09
2.449967539358159e-10
2.29400209596451e-09
0.03199188949572026
2.290258539270261e-09
2.285918587878538e-09
2.668995794063476e-10
2.260610388581312e-09
2.717306387994665e-10
1.550386558905996e-08
2.259339401324286e-09
2.791732760232077e-10
2.243822793353755e-09
2.862992179146283e-10
2.270953281116536e-09
2.929966353404233e-10
2.275424320333545e-09
3.017447224968632e-10
2.293021022734418e-09
2.201077123359849e-09
3.128042732775143e-10
2.250093091435392e-09
3.172122079415751e-10
2.272857321022119e-09
3.232499905834496e-10
2.293777175163108e-09
3.299494950738516e-10
2.320589714178781e-09
3.356494123419329e-10
2.233131619501911e-09
3.418681213078201e-10
2.286716908979343e-09
2.311581747844994e-09
2.318671914810635e-09
0.02627615154750214
2.321063149711228e-09
2.335781534877351e-09
3.67909481774394e-10
3.691059607398759e-10
2.33127865766291e-09
2.323760857083271e-09
3.732465979877362e-10
2.308553492053393e-09
3.818930076174846e-10
2.293923478521318e-09
2.293810784772947e-09
3.954045494235437e-10
2.279659174566103e-09
3.986074032988654e-10
2.278189006617527e-09
4.056184702416119e-10
2.281906856687793e-09
2.270952873938712e-09
4.182021690068792e-10
2.262355619550634e-09
4.194174848995778e-10
2.241051249891281e-09
1.112013458440726e-08
4.245147468132715e-10
2.282632846121141e-09
4.310709047276432e-10
2.219889799750728e-09
4.355813834356279e-10
2.254765700824972e-09
4.389244672057492e-10
2.255252464699756e-09
2.249561775389448e-09
4.438102890014155e-10
2.232684074839014e-09
4.510060430608707e-10
2.208131649679852e-09
4.607570112195057e-10
2.172558493124524e-09
4.620146114903955e-10
2.146530035125354e-09
4.634395603611684e-10
2.134264095903121e-09
4.660328963174607e-10
2.105382254985952e-09
4.694515454551001e-10
2.070966612594542e-09
4.746152210206347e-10
2.038388014708663e-09
2.011169361039356e-09
1.991435996689498e-09
1.972172588672209e-09
1.953362390147222e-09
4.926962775187583e-10
1.935359755791136e-09
4.922878332675894e-10
1.917489825407606e-09
4.960126427276606e-10
1.904411879042764e-09
4.990456965773719e-10
1.889372304809429e-09
1.886402134342706e-09
5.022845824207156e-10
1.883365842305024e-09
5.083068620423121e-10
1.871931758370931e-09
5.127483700521786e-10
1.862514473612434e-09
5.154342870532417e-10
1.857351838759034e-09
5.180703383439539e-10
1.855897522138642e-09
5.216776711385655e-10
1.856533922420325e-09
5.269411620017689e-10
1.862331817762506e-09
1.873313817542567e-09
1.886724485568181e-09
1.902138821352694e-09
5.420420256164994e-10
1.922821112124751e-09
5.367372061467731e-10
1.948063049037201e-09
5.375044201929692e-10
1.976453681080839e-09
2.015320651165628e-09
5.390908755432841e-10
2.041786944882383e-09
5.416648314569974e-10
2.082049947942477e-09
5.433448278945481e-10
2.118621461524147e-09
5.464057897884543e-10
2.150762601723789e-09
5.519867933918058e-10
2.178720124946252e-09
2.21399845685853e-09
0.0002338348868177233
2.23700680391516e-09
5.616294745889578e-10
2.268376303880161e-09
5.587755940441371e-10
2.294552761715774e-09
5.61421861975787e-10
2.315115530319589e-09
2.341154693601929e-09
2.372821299354266e-09
5.709160846241611e-10
2.416008926767608e-09
5.687745131239762e-10
2.452393152178971e-09
5.707856231704374e-10
2.480834463518318e-09
5.774264501276096e-10
2.499424619213183e-09
2.514350440942471e-09
2.516102326525865e-09
5.889084088890688e-10
2.507675818801053e-09
5.83356035340708e-10
2.496593710492181e-09
0.0002825486084984595
5.832801865137095e-10
0.0002928107541018009
2.454823851106194e-09
2.401976367512295e-09
2.345022275508842e-09
2.299458093430404e-09
2.26030694499378e-09
2.234349303994165e-09
2.194510381240948e-09
2.161216593894434e-09
6.027993300028983e-10
2.143043842754745e-09
5.969985778370865e-10
2.1389214303527e-09
5.982195581870544e-10
2.14094771598439e-09
2.137075772194905e-09
6.021077593629444e-10
2.127748177832068e-09
6.043299331031367e-10
2.128432577048551e-09
6.079883399226277e-10
2.108406360544519e-09
2.081868659142222e-09
0.01120557902366506
2.05354215164828e-09
2.015223900924589e-09
6.220950475392022e-10
1.99027415256396e-09
6.133346418942205e-10
1.951093222385344e-09
1.909012368150491e-09
6.130649455886906e-10
1.874698656350621e-09
6.15686752071744e-10
1.846319319305715e-09
6.219129961358063e-10
1.827852042429454e-09
1.819197585051415e-09
1.817973927783363e-09
6.307779218834028e-10
1.826675732246076e-09
6.264857712442833e-10
1.848005692335281e-09
1.872597247645243e-09
6.282407733860443e-10
1.88972803425877e-09
6.32132250261456e-10
1.905481671713372e-09
6.352975053175448e-10
1.923267356379266e-09
1.940054788798546e-09
6.367072854824183e-10
1.949913663763795e-09
6.396649663289343e-10
1.954868076302567e-09
6.417645269682721e-10
1.944409329002488e-09
1.924782125692741e-09
6.417382807222994e-10
1.900118247194689e-09
6.438296095201145e-10
1.884826505755497e-09
6.444635098633077e-10
1.85224351916966e-09
1.814576637140139e-09
6.331453251371611e-10
1.786947798474194e-09
1.773682995033356e-09
6.31293469445113e-10
1.750240271015821e-09
1.724720267967461e-09
6.495929808444469e-10
1.70366648701259e-09
6.561391228901882e-10
1.697330552841277e-09
1.684623934122623e-09
6.615907999798009e-10
1.668818623735258e-09
1.661834729598896e-09
1.661484591349109e-09
1.671714839933158e-09
6.728672461690402e-10
1.682665399661817e-09
6.67443525163922e-10
1.688316861034118e-09
6.710937124431602e-10
1.6949805304435e-09
1.698099336254102e-09
6.867675058941609e-10
1.699097094000169e-09
1.705099489211074e-09
1.703051758821889e-09
6.872214095870438e-10
1.692882721458916e-09
6.78803970481315e-10
1.669423194231757e-09
6.796307276382639e-10
8.574441195565216e-09
1.7025572520371e-09
1.64571321775186e-09
6.833007344346054e-10
1.673226815221697e-09
6.878302825019452e-10
1.683580335892219e-09
1.689823983286872e-09
1.688636112770405e-09
1.680185274283311e-09
7.014141173123188e-10
1.672611980391856e-09
1.674623186961232e-09
6.964487362536466e-10
1.663582674018948e-09
1.641415381280426e-09
1.617043745132223e-09
1.59551237532468e-09
1.577373046815037e-09
7.116159829697817e-10
1.562066314440607e-09
7.037834810196694e-10
1.548135367123344e-09
1.542303123751325e-09
7.058468612880217e-10
1.539286480591912e-09
7.102672271337509e-10
1.532022695622328e-09
7.157407928627166e-10
1.524361919326957e-09
1.520110981319427e-09
1.530437177329836e-09
1.540203127633179e-09
1.540910253777611e-09
1.541234166922566e-09
1.54532603882846e-09
1.550901150527399e-09
1.5482710814771e-09
7.34571891326508e-10
1.544814886801941e-09
7.279422901808243e-10
1.548565793840889e-09
7.322718190136294e-10
1.543254553631892e-09
1.526193022891783e-09
1.511112486782681e-09
1.507737110758891e-09
1.509030755855936e-09
1.507697709171757e-09
1.507577850192455e-09
1.517572728103226e-09
1.520492370608877e-09
1.520280635632388e-09
7.620170609704051e-10
1.51961655820531e-09
7.586829239628891e-10
1.515483110056702e-09
7.607010312199383e-10
1.507045066993043e-09
1.49447648854819e-09
7.649560241323196e-10
1.486797875462492e-09
1.486228980382799e-09
1.472461945395446e-09
0.009902981417942188
1.455357913298406e-09
1.442162483291473e-09
7.841526593632413e-10
1.445046978791286e-09
0.00275311217382682
7.772432167555345e-10
0.002777997126213649
1.441661189122706e-09
7.812974946267672e-10
1.435468730667033e-09
1.43306611864644e-09
7.879284558547576e-10
1.434271373707284e-09
7.925777831977652e-10
1.443174344458368e-09
7.944232862621656e-10
1.450947645592737e-09
7.970650729593258e-10
1.450568321805535e-09
1.434542475669588e-09
8.033570341064454e-10
6.265191673467178e-09
1.480572018243646e-09
1.414535420465481e-09
1.428274191974592e-09
8.235777059222759e-10
1.422832568594846e-09
8.247081271327315e-10
1.414716646574816e-09
1.406721539056757e-09
8.358036051578352e-10
1.406443659413774e-09
8.532813335761047e-10
0.008563889795687686
1.394708654801414e-09
0.005621445768921783
1.373510294750415e-09
0.004508333577274723
1.355818531220525e-09
1.336652850878803e-09
0.003710899527492566
1.317436214673544e-09
0.003310761430401437
0.008082861458234317
1.302586862129194e-09
0.001720115152490356
1.301964853882614e-09
0.007546494176840664
0.007254101291288004
1.288736719886444e-09
0.002815453208027772
6.824719878226194e-10
0.002415263816619436
0.001691538920215219
1.271155138064754e-09
2.840458722950657e-11
1.266189364220197e-09
4.518512431845805e-10
2.550907512144536e-11
0.0007721747229646397
1.24711796172516e-09
3.669544188425072e-10
0.001132312367253806
1.225899538843692e-09
2.020116396870495e-09
1.421611765007169e-09
2.994201307155783e-11
0.001554833418599379
2.034043982469813e-09
0.0006940179252706844
0.0005706513545432468
0.0006670889373545612
0.0009124484500350602
0.0002264991848412697
0.0001159791322762659
0.0001145642407175079
0.0001140790586495443
0.0001135303418753511
0.0001129508017656733
0.000112454412717257
0.0001121125884913418
0.0001119044322291597
0.000111631634996983
0.0001111024005182039
0.0001103676900209818
0.0001097066057427727
0.0001102312166010456
0.0001096475787623946
0.0001111701167272886
8.158996334506314e-05
0.0001041110589732234
3.929792155622129e-05
0.0003279692502951876
0.0003452136552566888
0.0003464481831965382
0.0003535272736204731
0.0003528412555973217
0.000354017023410017
0.0003545562953644448
0.0003560236294554941
0.0003562203480502801
0.0003561336608541846
0.0003561905910964257
0.0003571865183027446
0.0003590349213435298
0.0003594225976439079
0.0003591723117578715
0.0003610361492043611
0.0003537223751783093
0.0003545826479122507
0.000314065950338572
0.0002870842754465309
0.0002993735554261009
0.0003040385028507413
0.0003072808070093957
0.0003754952937716905
0.0003757191825693232
0.0003757493186879946
0.0003732839042206685
0.00037403077935728
0.0003685697214313236
0.0003675144710466054
0.0003661159586832832
0.0003558304856182121
0.0003349277433011105
0.0003139458940331409
0.0002978856793593454
0.0002672726297001505
0.0002617573069206913
0.0002086699203807476
0.0002151851573310235
0.0002036216220156048
0.0001982427018556548
0.0001747132026724139
0.0001750241918285673
0.0001756615881742067
0.0001766793029386435
0.0001781802404542503
0.0001801128572425524
0.0001824299857784123
0.0002121428605446621
0.0002267702875356709
0.0002371426028047816
0.0002409343973429181
0.0002449942791193064
0.0002617880377019173
0.0002650318159063374
0.0002986767246896827
0.000349797301461378
0.0003395258850003307
0.0004210759153792414
0.0004368005806636528
0.0005108642747707836
0.0005333903799543862
0.0005564506946306741
0.0005800059437674768
0.0006033396009723123
0.0007212599095155175
0.0007046453110124289
0.0007379315900463533
0.0007545205719602528
0.0008280017753184692
0.0009355102498620827
0.001070122848209647
0.001106291491940005
0.001210931951342782
0.001243936610160881
0.001388154210061301
0.001361916763243618
0.001517764228864541
0.001654243073540359
0.001681227233872538
0.00189250716757872
0.0019274382721227
0.001962178956320645
0.00199772081405233
0.002033360310263769
0.002068416799065996
0.002104146408747157
0.00229213196790919
0.002318685880394578
0.002345150842892429
0.002371675826429308
0.002497900607270957
0.00246980661771765
0.002514626129770913
0.002579190594523512
0.002697922858081334
0.00278920598224607
0.002780665856203614
0.002877828366253915
0.002951697431183886
0.00213768329849043
0.008940152213788662
0.008867718978124847
0.009174266589584895
0.009354221440124516
0.009446205999671938
0.009417505430426154
0.009450645223709782
0.009505774036152569
0.009558638635046759
0.009570289765020109
0.009666416713852171
0.009867955983968313
0.009835903610043058
0.009562088844795221
0.009485065893802479
0.009476473813505613
0.009517525572865115
0.009515425644322182
0.009536116729432526
0.009340007250037233
0.009297154125483468
0.009237468457831572
0.009198747175448841
0.009173199552297936
0.009125169576529278
0.009119513798434351
0.00911258192374961
0.009140642909270885
0.009138280380019724
0.009367966433730626
0.00941078216775486
0.009466725269665117
0.009490305040846296
0.009666243370099623
0.01068029524599776
0.01122314219151385
0.01197101010866028
0.01205563437572464
0.01214703337513089
0.01230109745243982
0.01248093863431821
0.01292984134700193
0.01382857178743961
0.01459201512599116
0.01563903797055858
0.01665576736980198
0.01683199887777222
0.02124145310835423
0.02145543514919105
0.02165329261663075
0.02175011424405678
0.02180484258879702
0.02176561732216659
0.02394349545301948
0.02567571288444569
0.0265028037001635
0.02667487593201307
0.02855871407027814
0.03243182438518678
0.03328232836989753
0.04068802893530806
0.04076327600542296
0.0409651712540952
0.04128655569764422
0.04099140716613734
0.04083996701438622
0.04345852535745752
0.04411047352057867
0.04435939461472781
0.0445569499851424
0.04491285916146703
0.04532743336797467
0.04696995079702806
0.04767484574754541
0.04818808752002216
0.04846271408009663
0.04873181964932719
0.04920331847397851
0.0525240101074079
0.0525171599259298
0.05574067644642459
0.05598500104049575
0.05829375845317374
0.05743280316196441
0.05711357127615748
0.05679896042633518
0.05463945602519523
0.05380941518957626
0.05438037758094311
0.04933821713511257
0.04670002716917121
0.04335257657905776
0.03939751718732675
0.03564548434858681
0.00879095628733754
0.005907275941849709
0.003539538296739787
0.001344802647032929
0.0001240342188539553
0.0001154513803495564
0.0001160898342695001
9.325157026937579e-05
0.0001157372924279992
0.0001157243157878264
0.0001155932146196666
0.0001153272711437524
0.0001149667589367218
8.900035770373716e-05
8.844525640437185e-05
8.783432257544959e-05
8.758697981781718e-05
8.699922571305405e-05
8.667887737369094e-05
8.665966132220025e-05
8.668120568859228e-05
8.637362771053498e-05
8.578721698073751e-05
8.505091318781774e-05
8.450497923693922e-05
8.448377992178577e-05
8.482645896864638e-05
8.542664192053609e-05
8.630301746340429e-05
8.812727548041057e-05
9.055848728111064e-05
9.353463241612072e-05
9.767950939768294e-05
9.95469953604079e-05
9.803065206901649e-05
0.0001056961075373401
0.0001029963147012557
2.725747619237063e-05
3.448385705343677e-05
4.63631558047021e-05
5.345073284262289e-05
4.961470810698107e-05
5.458826103390094e-05
6.230099827540298e-05
6.811813992415309e-05
7.194234622588544e-05
7.677612480348482e-05
8.284444790906685e-05
8.962978349300242e-05
9.723184294463647e-05
0.0001055859107066623
0.0001142280831161395
0.0001235867985087907
0.00013273394651794
0.0001403494267855397
0.0001430996064688154
0.0001475678062872524
0.0001578516986564306
0.0001726411484586759
0.0001957825742370969
0.000231734271436579
0.0002574107046507082
0.0002696230181284914
0.0002793914462264153
0.0002839728070450573
0.0002833808529072313
0.0002932364608798485
0.0002922123996278811
0.0002941820205655933
0.0003380348808628477
0.0003416779355981632
0.0003436241767007679
0.0002997115090813675
0.0003003848681533015
0.0003475712798736446
0.0003485122522699094
0.0003493066031505951
0.0003499875247926465
0.0003506660310910112
0.0003513792295082106
0.0003521193840262843
0.0003050421839315801
0.0003056187200605193
0.0003062564721795122
0.0003068783347692453
0.0003550329830847087
0.0003554031588620586
0.0003556732930875761
0.0003558846322067825
0.0003095798129280118
0.0003559548589962813
0.0003559702046180416
0.0003560083363884313
0.0003560821021646977
0.0003561649966285909
0.0002126539164212199
0.0001862336500923445
0.0001724558571096575
0.0003563382093959056
0.0003565265536335691
0.0003567383640144868
0.0003569692803745647
0.0001661574780697332
0.0003573381631336413
0.0003576579037785253
0.0003580299940354075
0.0003583857173455895
0.000358750431895289
0.0001688832849786414
0.0001651788623508266
0.0001657205149441307
0.0003597349096509642
0.0003595127012098046
0.0003598198308596856
0.0003601295950792708
0.0003605642790836985
0.000181473358869466
0.0003621175462945278
0.0003614771450942161
0.0003626230408183201
0.0003633488963714094
0.0002242936962326349
0.000239212070473689
0.0003514643901120506
0.0003495416718251015
0.0003527828018606413
0.0003370822984466834
0.000327312996171735
0.000299269098293027
0.0003058532371747897
0.0003104436212340921
0.0003012967387637176
0.0003081847652668721
0.0002978504204856403
0.0002924117377954718
0.0002951020747193598
0.0002849320645082633
0.0002857223398318876
0.0002918856207440534
0.0002923817369195022
0.0002715005203195311
0.0002675906513597507
0.0002638249384293031
0.0003210300252442782
0.0003311447156318586
0.000341352954760272
0.0003588424404631113
0.0003633700202443114
0.0003712587755157429
0.0002358627993582259
0.0002314244395025727
0.0002271666860399756
0.0003756339408359435
0.0003753946647316866
0.0003750268153397967
0.0003745810061905546
0.0002060232110010364
0.0002017088519773346
0.0003727226488105197
0.0003718399154079962
0.0003707873273370579
0.0003697610647159782
0.0001825649808144555
0.0001792061877589915
0.0001761412835747953
0.0003645244284256346
0.0003626551182233755
0.0003605438582587072
0.00035830445497641
0.0001657813243663425
0.0003535439447689502
0.0003508205347502156
0.0003479224259284485
0.0003448967443103437
0.0003417326260041743
0.0003384452497928297
0.0001671012019412746
0.0003315454563943347
0.0003276277795264641
0.0003233876748841703
0.0003188344092204944
0.0001797966235966403
0.0003036686762757197
0.0003091518936868181
0.0001947451535746298
0.0002924810963072739
0.0002863975599960849
0.0002802024427032562
0.0002235566303190509
0.0002325005174877921
0.0002737223550401838
0.0002415658463120664
0.0002553617007757264
0.0002489250529109677
0.0002423306419739081
0.0002357399039089956
0.000221824709177649
0.0002288158155432519
0.0003289394907187087
0.0003464656594590984
0.0003638763550280363
0.000381468093287852
0.0001933393531726402
0.000189042273482351
0.0001852761181741028
0.000182093705656561
0.0001795242573493174
0.0001775131430491577
0.0001761773069695643
0.0001751587469171144
0.0005451536836033676
0.0005621137116420883
0.0005783420376816428
0.0005942473156715556
0.0006092972333865039
0.0006236221945944007
0.0006372859717677844
0.0001850165990998031
0.0001878436446516819
0.0001908754155694395
0.0001940933190245731
0.0001974634622050647
0.0002009621433995907
0.0002045351168984016
0.0002082858026005447
0.0007290243927724545
0.0002151683745950013
0.0002188875522149142
0.000222847109526814
0.0007658301877376892
0.0002299114909726147
0.0007716708073234533
0.0007790285416360168
0.0007869200500230165
0.0002491903500548236
0.0002533027970743977
0.000257471197667021
0.0008271244803419737
0.0008372285169890276
0.0002689949942475998
0.0002732621972418401
0.0002777567923989884
0.0009138974907768224
0.0009357888516441266
0.0002873741238776844
0.0009605734235687498
0.0003052549886367688
0.0003126474917548731
0.0003207924191951166
0.001079454132882829
0.001111740710387169
0.0003298266498344087
0.001142928209773553
0.0003604758998351127
0.0003712866976971798
0.0003824610596430722
0.0003943812058504237
0.0004072068722444065
0.001325168059701701
0.001359807420355497
0.0004533703343493499
0.000470895254766911
0.0004901773907220666
0.00150496139564184
0.001544855979043058
0.001584306898334954
0.001623254735172199
0.001660861932976628
0.0006260658453234873
0.0006479792750210894
0.000668372322702384
0.0006871505372730526
0.00182384332403437
0.001851332344402987
0.001877658185969032
0.001903473257791851
0.0007715936664601218
0.0007891806769737467
0.0008074841023884124
0.00201516814663594
0.0008771122221025755
0.0008512471161428293
0.0009054913534828474
0.002116898267197115
0.0009677137269125884
0.001001118923350596
0.001035227547825741
0.002190881270441823
0.002215928365719885
0.001141464462426007
0.001176723131526506
0.002277125217178919
0.002296557314681242
0.001305816849837344
0.001275669139396184
0.001334543600342358
0.002385408464904102
0.002419795151737977
0.00141385024577464
0.001439365904758992
0.001465037224890138
0.001491178279385621
0.002526297587839081
0.001544719883467328
0.001572104770142129
0.001599784208266743
0.001627173291864338
0.002586180052856894
0.002597413642333284
0.001708303942626743
0.001735955836799944
0.001764487820584593
0.001794393083201706
0.001824966488719112
0.002697797475552823
0.002686880974846557
0.001858267271571073
0.002664794615718926
0.002665337757240985
0.002677173901182618
0.002695795926018988
0.00271138387305854
0.002727559649651495
0.002138861669703466
0.002172320245947046
0.002204246013724221
0.002234736597431331
0.002263968720431951
0.002848627883976931
0.00287636211500518
0.002896632431027034
0.002914322962022914
0.002398905972342745
0.002426927849794796
0.00244586406866369
0.00246370614695741
0.00292323941283042
0.00290017444168543
0.002421267774509052
0.00292345387099489
0.002948711766583026
0.002522265423428279
0.002537115745159765
0.002551084829771194
0.002567657646830953
0.003005235664439098
0.002595074566579402
0.002603721510429203
0.002614726720273796
0.002622000892352381
0.002632404182932306
0.002670276010020949
0.002649362780502191
0.003047406061428858
0.002735673392823751
0.002719766241440579
0.003052802620499211
0.003055059007792126
0.002767600977772079
0.003058028799035815
0.003057535046061882
0.002805618052996058
0.002806935336703115
0.002823118178083301
0.002836345105388289
0.002847209216225709
0.002865841020652976
0.003077245907870015
0.002882775985674295
0.00289125584756824
0.002898696054353674
0.002899618440425711
0.002900009050869698
0.002900273673459147
0.00290019222597688
0.002898253983165406
0.002881999119158185
0.002880656924142172
0.002858292151897755
0.002841229492224316
0.002846936543088181
0.002701692162533955
0.002596683807132908
0.002358630030531932
0.002229530309806522
0.0004930416933707431
0.001369052739124623
0.003614721899303725
0.007583203943721786
0.00778970729059942
0.007758356279770573
0.007836269414986923
0.008040211091295098
0.007956872650014641
0.007994631443016115
0.008005569195415762
0.008069849685161867
0.008110630615359091
0.008123223553329704
0.008125630097647718
0.008107622364933528
0.008047819983446888
0.007965139324985191
0.00789713092065788
0.009766725573975185
0.009831690278341762
0.009830358501974551
0.009833207126357213
0.007681809355454732
0.007617856734105448
0.007520630105306568
0.0097834835017845
0.009736824433757374
0.00968100841654383
0.009585859472773335
0.007564241516030479
0.00779797232963489
0.007909688388972547
0.007959618796434566
0.007988548406310624
0.008012219253221256
0.009528877531856451
0.009453849403138077
0.009361965661281857
0.008030243654829242
0.0080663824487931
0.008117204654328015
0.008158684813480281
0.008181198181466067
0.009169758239703101
0.00916802688214364
0.009126542971439892
0.009107443660028783
0.009083022763156152
0.008072649898875359
0.008103875480872415
0.008138408893833693
0.009095367559083216
0.009105321883263203
0.008203184786686371
0.008226566504039851
0.009171162787918373
0.009224415174884676
0.009240971529783258
0.009246350696677218
0.009290734350062555
0.008276320969257791
0.008338398580559563
0.009448463591807786
0.009468722543435665
0.009448692780883739
0.008520466480950409
0.008601496283164136
0.00952944361609584
0.009586057913949727
0.009621569307626055
0.009618103257684847
0.008751849409981744
0.009711360358864579
0.009758515426042275
0.009812074246219431
0.00983279916386222
0.009911066989087886
0.00998374593436002
0.01000947980525642
0.01009481551572176
0.0101854651496692
0.01027182032942788
0.01039230014389423
0.01050684965586737
0.009197732922300155
0.01085711604485869
0.01102296080597663
0.01109711673964895
0.01118226528520205
0.01117544045982453
0.009469595835365479
0.009537285211755704
0.01128099978897395
0.01139073236929342
0.01153019937316897
0.01161963834154728
0.0117367258031282
0.01182574869757681
0.009759230935964031
0.009889012631165527
0.01003021946441622
0.01019415497193968
0.01037585749249875
0.01257662175755863
0.01271904903556692
0.0127920174160828
0.01072328968097409
0.01305602086583137
0.0132333400097661
0.01342422009244703
0.01360316720775496
0.01108301337479605
0.01398420062116955
0.01416377001955472
0.01435015932635479
0.01139795283112376
0.01479435607030431
0.01496005254431818
0.01515676552983407
0.01534314356168737
0.01147781072596564
0.01586482363265452
0.01607022206273113
0.0163240625388447
0.0118032215955629
0.01180860558667237
0.01706120042502261
0.01740441239093262
0.01780385766492085
0.01830517108108296
0.01887228139794004