/*--------------------------------*- C++ -*----------------------------------*\
| =========                 |                                                 |
| \\      /  F ield         | OpenFOAM: The Open Source CFD Toolbox           |
|  \\    /   O peration     | Version:  v1912                                 |
|   \\  /    A nd           | Website:  www.openfoam.com                      |
|    \\/     M anipulation  |                                                 |
\*---------------------------------------------------------------------------*/
FoamFile
{
    version     2.0;
    format      ascii;
    class       volScalarField;
    location    "1000";
    object      omega;
}
// * * * * * * * * * * * * * * * * * * * * * * * * * * * * * * * * * * * * * //

dimensions      [0 0 -1 0 0 0 0];


internalField   nonuniform List<scalar> 
104311
(
44461.10630760547
48968.10476540223
50233.38066604984
1235846569.709471
1428285665.094871
974586812.3011519
3501490916.066815
732341043.4604335
3594165682.340413
3631753934.002253
643434940.2178954
3645632090.62836
32137.72310601048
612401194.4130106
31610.41926777362
603182334.411628
3446065504.169241
9851.920717917881
3377423627.392621
588554857.5190538
3327377969.536955
3282107209.991576
571147834.4963305
3247879511.46947
564388222.1559541
564793777.9919996
566954990.9442295
569172859.7269812
2847995974.475863
2809520622.124968
571748417.6900074
2776589956.822435
2755370005.639981
575017115.3373152
2735250734.153753
578546480.1776569
2687871069.502022
582172695.3873934
2654214647.474986
585914311.9508059
2481856030.123605
589530850.3372663
592714362.7658509
595763748.6411504
1099563974.970848
1099774725.877485
599495807.2414051
1105002157.31704
604259015.0034053
608392154.2709342
611725451.7512236
614544264.3654661
1008497048.693829
616295422.8599561
994946540.7301971
617679425.5735835
981929473.130398
970079129.607535
619961921.5614071
622289319.1970403
954302708.9647585
948939458.5271595
624579238.7869406
944240693.1256567
626898125.9418381
940668586.928185
629184795.3103746
938097559.7028863
631478995.0060496
4978.895150969245
633754383.0848572
931568359.3777612
636292863.8406146
929021648.8549538
926776718.2820766
638619434.2952977
640426907.3622495
642098953.3705637
914105948.7921096
643549518.021602
910612269.1403742
644910959.5220773
907197540.1901726
646254786.5960461
647561165.9119391
899406905.6114663
895609997.4429733
648763523.2536938
892252251.8499724
649995058.5344214
889294091.6341162
651466387.5479132
886529903.9924135
652976137.8768115
654519982.9303827
655981473.6734498
657442782.3972672
872787121.4917644
658962367.968585
870044254.0880754
867492112.8106058
660465387.1879829
865327002.7787291
661819672.084862
863472016.1514164
662957056.0914247
861919213.3035899
663925195.5485903
860663393.3890799
664827775.6273223
857668013.3588834
665634610.4902545
856881645.1605923
666432172.3933785
855398786.2282628
667214618.520577
853765470.0222237
668001053.1917182
852110256.7560985
668806374.1012865
850408839.323543
669766123.2359916
848837945.6511077
670764807.2916468
845396094.1324093
671778732.2353399
843166215.7908522
672892564.034619
841418141.8525782
674039975.1922708
839982706.1234782
675186919.1895218
676303564.9504387
836749766.0953444
834618231.2791128
677509610.0481777
832860217.2332073
678561355.8802451
831384459.4883262
679602557.6841202
830119169.3117517
680608606.0946633
828425810.1523244
681586592.0559542
682505650.0049397
825070137.9396573
683453397.4269069
823664966.6753409
684245808.7370625
685071948.7602711
819932429.5936372
685912922.2319146
818634914.5149277
687179652.9738932
816959232.9248691
687284738.5625485
687963617.6104704
815352287.7663773
688868259.7420487
814145891.9048927
689703163.6004499
812951397.4384438
690396080.2580843
811986726.8223655
811160838.1120405
691110552.0552047
810398202.977704
691853998.3569322
809435409.0085406
692590102.1999828
693468783.6575377
694193678.70645
694997731.2127267
695834617.4182959
804883022.202778
696638587.5086441
803983913.984179
697349063.1277407
803043677.0969541
697944159.1279579
802206829.5459797
698524344.1160074
801450784.3761553
698912936.7520964
800718088.3009295
699299961.5342461
799977857.3413748
699672382.2555987
799369274.048685
700027272.4329394
700346656.7476599
700695785.9724059
797263909.1735229
796426417.6453711
701016923.0406269
701526223.1140246
702022727.6379731
702702543.4313034
703396162.9937522
792781632.5099467
704305156.5547693
792051099.6423079
705017138.0190502
791222623.5557797
705784452.8150864
790518170.7246913
706674720.454252
789858964.9200579
707542340.8691007
789188656.6746371
708384840.2315371
788581673.9731388
709180855.2509098
787979549.6437125
709955955.7080084
787358548.2490665
710625636.4030855
786747052.4825863
711450455.7404293
786113029.6294179
712041170.2617857
785487548.1378684
712631740.2437046
784876315.3470424
713289408.6893548
784394197.4469552
713876726.06058
714394808.08131
783243494.1234117
714753625.8623952
782615502.3678554
715199234.2992114
782041498.6989908
715487238.8720442
15366.43969634421
715860498.8678788
716217142.3834004
780586579.3909481
716544936.9657215
780080748.4643974
111224191.9971686
716708391.4928797
779461925.3481867
716980307.9737393
778860079.0028187
717182889.6601532
778295904.0681738
717650833.3386309
777838646.5022303
717193581.988807
717536993.4327251
776819290.7836766
718220775.998325
776341187.3581215
718672272.5728211
775774974.435385
719452347.1341181
775203127.9520795
719212187.1335708
774651690.5584344
719974944.9622324
774120435.3103056
721093297.2055055
721978603.7469369
722829111.7424344
16210.58369315015
723627008.6514229
724314429.7797201
772069707.4030532
771471920.5249521
725030997.2862788
725672967.5743388
770808997.5149769
726185882.9935944
770244643.5443794
726650647.7674109
726875701.7367812
769207613.1731855
727347457.1096336
768717783.3733903
727788162.0436853
768227502.6465521
728220715.3627797
728931880.5014836
767224557.345183
729723553.7769537
766676171.3241591
730786954.8949962
115288532.322524
766083261.6222085
731888131.5467198
765505737.5033393
733781019.3214914
764990229.0517867
735055586.5857345
764390871.92163
736491805.6473591
738082065.1139092
763808881.8999481
739738532.8665537
763284083.7737685
741303538.6154233
762668018.2594634
742858935.1570362
762075715.496055
743930040.5067297
761539535.9131452
744813734.736636
760914638.0415496
746066024.9916751
760271580.455335
747212762.1703552
759674427.0344949
748302307.9845333
749453797.1622978
750610583.3513749
751808715.2986499
753032349.840016
757577538.1685455
754368010.194134
757052716.500229
755816311.3380028
756579968.1380754
757203949.4305468
756152013.6937935
758727000.4853346
759842687.1020029
755669972.7727789
761113986.4183103
755239172.2974445
762232313.1236337
754889120.8277118
763159934.9230137
754475379.0115705
763868092.3252667
754034656.469979
764563414.6532667
753539024.0038036
765121344.1849027
753121030.0415655
765522342.3431098
765958814.6951246
766262589.8043598
766368599.7294381
751718216.5858306
766428445.652728
751208216.308269
766398534.6720091
750691359.5712498
766265249.3019112
765924773.203916
750170587.5313452
766148162.6224034
749634130.0412337
765461989.1562423
749198552.1638856
764653351.1602217
748770522.9748179
763861219.0984632
748431099.0988584
762692563.752226
761129427.9502101
11418.06082822719
760111736.8338056
747663818.8933399
758149857.9269366
747306977.5398787
756379134.6983181
746955477.5982904
755023888.15988
753908669.2750592
752803072.3260678
746147057.9885845
752042836.0306435
745837201.2136378
752295077.0965616
745481717.1797915
752425161.8871858
745239595.5464782
753055751.5251032
753968405.7014538
754917125.808701
744677438.1999607
755995663.8821048
744402698.8158305
757194049.0338821
12228.00650044441
744018323.8567306
12528.92213508737
758120570.9164672
758800881.3861498
758979532.1921835
758808282.0518396
758378291.845646
757600039.8028189
756908206.4128126
756232082.0870788
742049798.3013166
755625775.3933415
741656100.5252606
755203220.4132214
741257686.0464591
755170478.2925594
755445071.9570249
740863357.8929057
756053655.5033492
740585126.4698427
756701125.504519
740238743.0869081
757728952.3047812
758929191.9262068
24095.80301632271
760166370.5050215
761622820.9495314
739455524.2696286
762412954.6659755
739146244.5577559
763240376.4917823
763949792.7783291
738783239.9153713
764392605.5488205
738412559.1536869
764608803.4196708
738197293.2794514
764737987.3138218
764622133.3480855
764143705.1153145
737776897.3849394
763518581.0790877
737517744.744634
762835438.0353231
761980067.3555495
737235817.1008027
761164189.568621
736989249.9338909
760320922.0053785
736773044.6992432
759504378.922889
758668934.3865818
736567833.53532
758010996.5763073
736293167.0914003
757452251.7539117
736058836.0700998
756983059.4698704
756611575.7728542
735714952.0932651
756533660.4592659
735362829.1549513
756307533.8704077
735042895.5889751
756384045.0230647
756773452.524835
734837486.9228524
757113531.206791
757001789.1181027
734394236.0546805
757033067.2211299
757002201.3078333
733875109.1158872
757083333.4941409
733703017.1721973
756771333.2692242
756606379.7931808
733561785.0954472
756401900.4359736
755973731.4810474
755455814.9980906
754765701.3767439
733094157.3459696
754093386.874723
732812160.6821104
753534029.4575741
732616617.7530816
752961296.2515153
752505204.0370883
732445707.986237
752198686.4457452
751895238.257201
751700530.9113158
732164250.5294306
751481141.667715
731885716.4678756
751187355.4588083
731585660.8303562
116452857.4389904
751264929.4029007
749863027.2217035
731320517.2178655
748450947.4174347
731138300.915836
747195404.2370452
745939484.3481393
744743305.7350475
743674897.7049769
730581523.7095068
742861882.1996076
742079314.0656157
730306158.815336
741633834.8605185
741451060.2569542
741488778.4886826
741660198.3668113
741913619.0443622
729583682.5817858
742226315.434826
729289644.7822484
742633874.6453981
743120453.0402987
729081041.2703372
743784579.5936118
728870117.4542928
744547823.4356554
728764585.2449399
745252828.604513
745753297.2622473
745842106.0779132
745600693.8469709
745047118.6073684
744023728.7449176
742689768.8416034
741171786.713786
739697405.202189
728040142.1515858
738373762.5091929
727709391.1872452
737192173.4451258
727463807.6086324
736164860.605882
735423300.1052449
734822876.2884898
734343516.5977194
733967085.9132683
733611104.2231778
733225286.2506789
732685888.347237
732130700.7491916
731531445.7567201
726471070.7434472
730965553.3162007
726084388.1060591
730496182.1289473
725814248.3268111
730180865.5371653
730105568.3689778
725525390.8463272
730090013.9802245
730108296.7150878
730441809.7922155
29561.50566694762
730831911.4105784
731211500.1267731
724651774.2085888
731256246.1962078
22871.26932495791
724222860.6542017
22772.62641297172
731475014.210515
723833443.2871859
731526561.3240964
731428559.0597253
723547173.9120605
731220238.8423326
723278931.5659581
730935686.1400124
723032499.9698505
730582854.8131461
722702299.5781738
730332934.9392192
730117577.0209169
722463585.3941804
113711969.4776735
730680224.1855276
729698104.3807552
728990427.1890967
721716480.2955648
728511878.1431768
721533655.480342
727915014.3530053
727399023.6346915
721527658.18047
726710963.5649287
721824832.1990737
32203.60866051522
726229525.1607559
49149.22931876779
725860386.8973427
52030.90380508556
725361389.2786407
724931570.2356297
56367.05974236454
724485335.4025341
60685.32904626228
37573.95923073107
724156651.8523462
57295.04936844001
723670494.300106
46168.86692576179
47410.66335875055
723617920.989507
31617.23987534987
1118876459.760739
78892.6868443274
108615.2545060007
723207769.3593282
1257493193.491672
722935833.950642
760878894.9406894
760594143.6173745
99880.63649190974
722717521.4222239
763521565.7676286
94609.19285089477
722352902.3621879
764518704.6175398
720536930.8533642
1166152072.796369
77049.55765332676
981583089.6489223
127930.1882009607
145256.3356479203
150667.113531124
83993.23876881276
46941.46909637317
25208.97749949366
27002.17526187544
27348.37248147114
27703.47943785415
28082.64623696416
28480.35252023575
28877.74584133895
29236.30635644863
29593.57113606124
30001.27233982701
30469.71444480976
31020.32898952874
33016.90771839439
32610.67693372611
33340.71959898673
15989.61313044505
16764.13731142513
14393.13793244014
4921.747848387557
4713.994601374367
4670.620360077926
4310.302346877274
4348.042771088344
4275.796058815653
4241.359192841765
4087.672734819673
3934.015611820883
3909.936590782626
3884.526889043616
3761.827360777383
3639.963809553247
3604.8083019284
3623.129799935758
3520.78878956124
3482.223043960861
3476.670558122531
3444.091877659268
3434.189232752848
3424.909017192004
3420.180745431709
3415.844004978998
3370.41143158711
3361.572382376349
3354.122850417722
3309.882326608591
3316.944256392056
3275.294104350518
3267.503331979604
3263.748702244518
3279.424277159121
3392.375620752773
3582.267179153559
3766.291877234936
4212.996416598958
4310.953538588289
5723.387646192454
5482.119581528261
5939.793864785501
6190.873410075703
8595.307601297105
8828.425108490768
9063.423012737185
9294.467831999418
9511.122859406163
9715.278929164928
9907.776678431343
11046.16896484567
11289.76386715225
11517.90331056536
11569.61087298326
11609.45031238606
11805.01971384558
11905.08086724057
12724.21727193415
14194.66981250924
13922.15575449952
15802.14119102102
16082.24150059709
17410.0547080503
17737.22462636081
18091.31340794902
18448.33017404244
18791.93125247931
20308.79283328085
20125.31907495678
20460.41108861269
20604.85396682398
21162.97355907004
21806.93275899864
22489.10051257195
22639.15476555105
23094.08482144392
23209.57035001855
23662.33099285792
23590.46854704054
23919.65952473513
24099.99521061632
24126.6437780583
24336.11772151952
24365.96880313709
24396.31758264055
24429.58285070815
24459.15778063392
24480.52186250068
24503.94404519457
24347.00641411306
24269.16790303807
24185.16104439279
24097.58924743779
23651.12920843163
23704.24441085967
23600.37177688268
23306.97005267341
22978.47006317634
22664.48985336409
22713.0186127391
22379.03015577943
84383.17191476894
96098.56432324926
38736.94892454664
31441.06116958311
30944.82544596278
30721.65838724597
30642.80906744267
30625.02354347646
30484.13571126729
30316.44643268253
30161.52318073787
29995.36105796289
29746.68126983603
29625.20051583821
29725.23550913695
29315.1343002095
29419.42354349562
29436.60525843213
29417.62361924829
29436.97671627597
29445.33613986384
29868.77408177722
29937.5108961798
30040.6826678267
30110.10234715069
30103.27100957875
29958.92485040849
29960.09245062734
29962.88980373273
29649.40711782639
29649.29344389255
28537.66381238011
28412.73721515854
28162.0767952032
28035.84414835979
27420.21117389734
25086.56854921773
24083.59496738053
23140.25381115618
23037.09863624955
22942.41087807612
22783.33655141933
22642.61270158561
21870.32758735941
21348.7976377647
20527.83499215307
20424.82948450563
19703.73757008838
19516.26425681644
18202.69236157465
18126.0398333175
18000.52990083041
17913.96635756939
17819.06102973425
17764.86055443457
16942.02677604567
16428.32858857144
16151.46284401715
16109.32874729136
15789.40883499399
15330.98744012483
15352.8401456294
15495.90333349592
15637.29590684087
15729.21258459226
15756.77642649732
15989.82545734955
16040.25730332555
16366.43468520971
16518.33140854191
16763.64958374913
16961.20806141133
17055.59138513734
18122.7884648646
18629.31905953717
18821.18813453835
19118.91689498039
19468.42718315412
19736.26636222851
19891.93496284632
20945.33576689534
21923.89203328727
23595.74052085884
23865.62625716053
25751.11609403634
27438.51789272661
27889.29815477279
28347.32183911865
30020.34678770979
30455.7158060097
34253.92371239859
44766.70899491237
48453.47844493872
53153.14012500395
58934.64465649199
66321.11788480503
273595.1143800635
288900.9675818052
191107.5254724097
192650.3804359223
22059.14823760114
25167.78727501442
24861.2904049006
32515.43307466392
25483.62569698992
25766.18282483467
26057.70068665262
26364.68555902757
26682.64201694775
32219.32937566637
32633.18768500373
33091.89205684507
33542.0383871238
34017.47452586036
34529.05166124106
35055.90485602854
35601.80686716335
36149.69449664146
36710.75048439758
37336.26927625613
38050.97104246895
38818.14396050766
39605.474560327
40433.41699364625
41290.94123109634
42099.71478868674
42772.72581222181
43087.46471775225
42259.21423661252
38813.29364029392
32830.11718405138
28498.23902745545
28275.66085917992
11942.33425565872
11110.13069946066
11101.92567389347
10686.09304169912
14258.13165937976
9414.819551828545
8965.624858602991
8500.515720014129
7989.654332482929
7574.837734759984
7257.977555312367
6998.340888316504
6766.420684129323
6556.684306146076
6377.913824749067
6228.475479435281
6098.799288951353
5971.771242833107
5855.93388747345
5759.208764701544
5677.535245271314
5606.191710163752
5540.288723353951
5470.098332724301
5393.041555626881
5314.798739251693
5238.346571191338
5166.383016652962
5100.467885304921
5039.948885944095
6104.279307559022
6030.096007719092
4865.594419515148
4812.518856655296
4762.507316053714
5746.976299184746
5687.194077007867
4627.438055874349
4585.271546533001
4544.15988119133
4503.885659828295
4464.224387825016
4424.752537205689
4385.828464826951
5276.919788078501
5234.465755861431
5190.943028942011
5148.213706801278
4207.950218585897
4176.019800242634
4145.43746800625
4116.374400994439
4973.545118148261
4062.068250001937
4035.955520688227
4010.164425720544
3984.693579497936
3959.796937006493
4905.366423768229
4927.335316254645
4957.762869789012
3859.243791787119
3834.399469514599
3809.90793429378
3786.166088125404
5134.892491088396
3740.841762219502
3719.74397243959
3699.527712238448
3679.246328957895
3660.075518008253
5337.940257185238
5377.993781409193
5417.376116647765
3573.850727292142
3589.876974664445
3559.888768567712
3545.713615068994
3532.956751236578
5598.853784079182
3503.353196975493
3512.428785072582
3496.83535411154
3489.669133324408
5663.142074484823
5659.50432750816
3470.279104603091
3464.025226625082
3457.72806777889
3452.193447174026
3447.875958069013
5549.662686381675
3440.237656405681
3442.63550550053
3438.964656576849
3437.233641620207
3436.108734743351
3435.498240192352
3434.937300232388
5506.951798560971
3432.736993070925
3430.530185412636
3428.162930345482
5606.733760334168
5647.424231651603
5690.03868549923
3410.630022702656
3404.89439336445
3398.548186821713
3391.46416462584
3384.359315817304
3377.431062675239
6172.528912750106
6282.258590708524
6396.685473981972
3346.356908821355
3338.495569322706
3330.975100363652
3323.755393320528
7154.687945755613
7356.459719945513
3301.048407937593
3294.124406080528
3287.641589881215
3281.036887397469
8547.103855472045
8829.450472020564
9125.156288298753
3261.913173171043
3262.897783453306
3266.369162467151
3271.909230257279
10767.43570056911
3285.681347680872
3297.252383757685
3311.127005333466
3327.256020100056
3346.072159681601
3367.346267607221
13414.41640465457
3417.324061070783
3449.979741625944
3488.175409868341
3531.71517120417
15742.3079915239
3695.368865150346
3632.841048948769
17249.64583973842
3834.430785236967
3917.217891038342
4007.157579878524
19258.81153906857
19690.9988930546
4104.353058776673
20168.09035573679
4433.502309865684
4566.553587864119
4714.363834535217
4875.784629469107
5264.475071933609
5058.421961971871
23697.466994641
24144.27326790086
24633.08439003008
25110.92313980678
6452.22241841893
6718.457512909785
6991.222838045916
7265.861002838547
7538.151386133258
7809.450489097921
8070.700250021265
8334.892754237699
28318.49601254041
28526.38395217064
28711.42249582284
28878.84007199646
29018.93795773939
29136.09885355697
29234.47027410319
10087.25017066627
10256.86629175018
10413.85916570976
10557.09477415909
10685.81471365235
10801.66645700441
10899.51765837142
10980.56483510696
28798.37534808042
11149.99149014571
11203.85229330068
11262.20645401469
28047.23377224719
11380.44815880483
28051.71741696451
27992.30815133627
27926.75938822679
11659.46962695736
11708.959297161
11762.03528188075
27838.25376936577
27899.7300360706
11976.96681074521
12049.91432798036
12139.71821532059
28362.93242003618
28572.20111789534
12384.02658837318
28818.5113286228
12928.39535090703
13154.04367093847
13396.23059849935
30047.37823554445
30342.40420734983
13654.35399369993
30645.72150526565
14462.6072335998
14724.51481035884
14981.28818570899
15243.73421010224
15513.88620032317
32330.46827481423
32575.20093247082
16392.05288861078
16713.10799794131
17050.59771309093
33756.55048246639
34031.91685412609
34322.13012639344
34593.94204532564
34827.01607187964
19114.70171517423
19414.00575845942
19681.72851899921
19916.54927353096
35331.14252946217
35279.81698115871
35197.42787519802
35090.36836620409
20745.90489496186
20881.79061266558
21016.76254839935
34625.755564319
21473.65708422037
21307.26942683513
21632.85953537825
34459.19955714016
21969.74796698558
22143.80546318673
22313.13031631793
34601.36674906975
34645.68702974916
22794.60974524562
22947.00423015164
34800.94439370622
34832.36466103079
23429.87601465789
23322.99126586289
23511.53316919326
34891.985688837
34855.511573699
23717.49539734612
23771.60019588886
23822.87489332518
23871.70839951112
34535.4939660258
23959.34912256326
23999.13252165138
24036.61069410725
24069.78337499411
34244.69652440305
34192.66586849772
24150.83687699729
24175.09343459504
24199.68879408966
24230.06127538478
24255.53042508542
33817.46546890534
33772.27370992683
24295.02759141673
33754.82055189992
33747.97534911448
33748.76322724762
33747.76009003471
33735.84918759614
33719.36916156156
24514.93324293369
24511.37161195612
24491.32543664907
24456.78961035852
24407.09015384292
33268.46960004
33122.79355899549
32972.58599579346
32819.28261724623
24015.33165629676
23939.06013985823
23869.52776102269
23798.03050781889
32191.60036553782
32114.10995026997
23753.29518707329
32029.26864618195
31936.31502987418
23546.68375793169
23489.61741993772
23429.68478487024
23367.79130941791
31301.03271222414
23248.54225029411
23193.05968071935
23141.73233464071
23096.26860487326
23059.08214465867
23001.05415453375
23028.15736023755
30498.89565511698
22897.12608021754
22935.63073721498
30147.41821345538
30051.35601409649
22813.07236629894
29957.81250848897
29862.7931667996
22601.51611244595
22533.93793188475
22509.94984645716
22504.43391600329
22461.27722083571
22415.04397362838
29226.09225733454
22341.71606852013
22321.29504817519
22312.14295354749
22315.92966558774
22338.16876347818
22385.74322733609
22468.13794136131
22594.25989335718
22783.92811757906
23045.83072966015
23409.44295827516
23837.39052176622
24540.19364119602
33099.56324338228
34545.27620532167
26870.19804888925
27868.12762890972
196435.7787750697
115107.3411191294
60844.13040219506
46377.59901055307
45001.34968922025
37605.28000884937
36158.80786406711
34592.68977531972
40061.0462363137
39657.84714199347
39416.83279572817
39264.24337062974
39191.79257684503
39151.28219491108
39098.18539593946
39079.90104876764
39098.42166665428
39121.31132902608
39130.33310631972
29598.28715594052
29575.76209003355
29620.5018127962
29623.59562006007
39667.06126255848
39777.57375504181
39909.05764180858
29748.9664283346
29664.56101789605
29515.64969774336
29410.93330978175
38713.36112066218
38557.42484848023
38511.39765916278
38492.87074455826
38479.96478677207
38462.77680843623
29534.71054428581
29712.39767047074
29836.59548029377
38647.75057198836
38635.49257088605
38628.16183787288
38601.07894371865
38565.92969745951
30074.85083300778
30098.70139212344
30183.16536589425
30183.76023122954
30100.8565409431
38652.5268965542
38609.30871538682
38560.21321295871
29914.27342179214
29759.01582282312
38292.16930036512
38231.6700187624
29551.42281873936
29417.4084887592
29333.95302776351
29164.39792739167
28841.28160049135
37614.63305339022
37496.25743353533
28337.22739890765
28296.23988497142
28262.30937674372
37112.88076789099
36896.31917449362
27841.5251126322
27645.68484265279
27533.22975547244
27487.44706198466
36610.58870032388
27298.7625594274
27162.44231083567
27027.73469300193
26936.3183401403
26739.8910790617
26565.45376629085
26501.78615416985
26318.54550973714
26132.80946739909
25957.78745020956
25714.04295161798
25395.14353747713
34892.95324928113
24934.09389644941
24812.78745190817
24723.76845420428
24525.65991479826
24284.82894514923
34262.84137779192
34171.09584258281
24013.09025754709
23867.02102722249
23654.94300108039
23568.22584048652
23436.16501726024
23290.93588562148
33298.67660754556
33167.22134251994
33063.6298541141
32910.39364281678
32760.00611481055
22637.87315694169
22445.78990673404
22116.07536585713
32040.18874925041
21843.33798710543
21773.03916832541
21663.27777283771
21492.25054988935
31617.73558030557
21221.43387825107
21030.68910902103
20760.5024691909
30721.5944053312
20475.54675221506
20451.89030102943
20460.75712891333
20447.55129333211
30769.94959747708
20371.28354724089
20235.41061819977
20003.98122182714
29910.02826124789
29600.48119034253
19398.38095972875
19260.93107120546
19178.76254119161
19047.21186271494
18889.44779752191
18730.23702503717
18673.51258734894
18606.16757726825
18460.3755674257
18343.33171867603
18337.24482418889
28296.39318946043
18315.5887619216
27947.28644096266
27676.21643942981
18088.61661049868
18074.54613285432
27500.39096348306
27347.6927019892
27165.28800595104
26996.37252714148
17678.64659813802
17617.31393294139
17563.70248193433
17503.33504296999
17387.03481816608
17278.12879668995
17189.90011758967
17096.88214625921
25509.0394285752
16767.6397412176
16655.07334837832
16528.24934346272
24649.52562276114
16327.18382664331
16302.85721242798
16275.75786043645
16250.34400228389
24208.1201736591
24032.09547850633
23880.13691542441
16078.90899465906
16048.92260824098
16004.8552241698
15949.8302338269
15887.30872854607
15840.99536753215
22993.04847270329
15701.11919176139
15633.20608185968
15580.58065985361
15509.70337093338
15426.40926669255
15380.48380220243
22009.54513606856
21896.11493242776
15329.5645872763
15342.92446870991
15339.5980704805
21664.24302338208
15340.86599769322
15333.85186135504
15340.60178255286
15348.61760398487
15358.97596968312
15369.66891135234
15384.48947862128
15400.77809493025
15421.65424711403
15451.16528541684
15472.66507869079
15471.79309972982
15450.48697168943
15418.69702809999
20933.71905141372
21129.10471506801
21192.68725050121
21131.60467372628
15823.00446522369
15906.41652823922
21338.82811514776
21350.22746919747
16117.44160787409
16223.72929639273
16331.17088547527
16415.78748776489
16468.32276630016
16488.14898717105
16457.76035551059
16385.86008591742
21189.44074560638
21416.91969448204
21762.05713929851
21986.41048579881
22031.49768775023
17135.48105102693
17291.52224410903
17529.85839530686
17771.07318430801
17946.62203761085
18034.58897806496
23141.23229405538
18253.04791534658
18379.88089296943
18509.17274709748
23471.97252996875
23688.36966697178
24096.81297858752
24550.60286688057
24864.32629375234
24987.28449442121
19969.89254965
20072.18378405484
20257.98882445321
20490.38216430532
20721.73902241031
26275.03684526237
21164.96279310226
21372.91953503401
21573.30053048704
21751.35542840867
27363.62260704853
22087.11063386785
22257.50604773854
22438.28686794608
22612.9669231113
22762.20112764508
22890.93138628278
22997.96602013268
23062.62439879172
23092.64370891204
23103.1102430955
23099.31035190185
23083.52621377042
23071.53216783593
23082.64057959265
23138.39614141366
23236.18387305591
23383.79612902815
28440.62179543898
28751.95430426421
24153.98218235818
24430.51867142668
24717.75286789624
25026.79707581853
25374.07087765937
30673.01488818319
26146.38211444179
26560.04047372939
27008.8856606153
32347.09104995983
32778.22596475236
33211.44680337998
28750.24940702835
29147.75266644097
29587.61530755014
34932.74550783567
35419.85941554611
30935.92555080802
31436.47515657989
31982.60098320825
32587.38406058282
33337.91076333591
38311.39683515755
35565.30715534737
37282.63804096547
39368.85141068877
41876.16847438338
46150.15141344758
48252.59167633794
50809.09277942272
53887.95458193291
57850.19341821389
74106.01074646669
87564.32175048173
174783.9852399062
235262.4632530491
371147.9377844722
399041.9075068739
437076.2369779283
32705.76359495099
35972.24970492172
33680.29116677863
131965.1472436607
31787.83000352851
31473.72223993621
31464.60300113589
31617.27128078257
31876.63616770414
62382.37376731206
54805.65390830312
48802.16033049987
44433.06320014343
41606.49288825978
40099.66758401337
39556.63209110184
40579.31714326284
41281.33894113376
42120.95972276148
42928.05429891955
43862.12783773964
44888.1030820217
46013.90741312253
47212.9497156602
48446.14414117169
49628.62737812669
32002.92994821598
29410.4603887756
24956.85202250378
40150.21971665142
40396.2446431428
37647.56576664495
25793.7303392473
1336664222.314272
20763.30484725134
1231352345.823987
17597.20373945774
1140303528.89431
169256232.9650174
15978.75124271712
167455265.8969378
14966.96254716756
168544869.9535373
13518.35651381945
12631.96684942835
1089140377.933619
11825.94051186042
1062957972.887213
11087.66766675174
1046467577.868427
10396.31840809211
1034305069.594167
9869.168146048334
1023059703.346409
155115224.0314462
9453.055782132093
153192484.1530656
9097.840739154281
151327052.6440164
8773.24986937486
149631999.5144459
8478.86462324778
8229.593484276595
960500498.6805648
147266865.3948172
8009.914746377672
146491857.2739458
7806.158031637089
145765127.6963364
7610.756145144052
145186676.2260041
7443.977953581494
144746372.5912115
7306.010844584966
7180.335965492968
935930357.1347259
7058.885742531266
933496314.0761373
143635614.3644686
6941.463201181665
143202687.9358768
6821.394863027649
142822783.508759
6702.945459735454
6587.221593970318
923697650.4515172
6475.798686687529
920693973.4530191
6370.524972369952
917593499.5978813
140855109.3139312
6272.637245015882
140312406.3663575
6184.275276749205
139789972.1703259
7324.479008280302
7210.370327010603
903106635.9493777
138611876.2397114