/*--------------------------------*- C++ -*----------------------------------*\
| =========                 |                                                 |
| \\      /  F ield         | OpenFOAM: The Open Source CFD Toolbox           |
|  \\    /   O peration     | Version:  v1912                                 |
|   \\  /    A nd           | Website:  www.openfoam.com                      |
|    \\/     M anipulation  |                                                 |
\*---------------------------------------------------------------------------*/
FoamFile
{
    version     2.0;
    format      ascii;
    class       volScalarField;
    location    "1000";
    object      p;
}
// * * * * * * * * * * * * * * * * * * * * * * * * * * * * * * * * * * * * * //

dimensions      [1 -1 -2 0 0 0 0];


internalField   nonuniform List<scalar> 
104311
(
36924.88701387827
26639.60463860984
20710.13580462727
42755.32946893646
38764.52274772114
60374.71740635035
13539.75108485639
78307.33750324762
13072.44900065534
12854.86332285964
88027.16007433062
12704.63728073115
13938.05410681727
93049.57498550181
13745.76794850792
96284.06103153247
13263.53545572699
99567.87466633487
13520.85290807597
99941.26436493195
13702.05847021906
13864.18845595768
102188.2971788394
13967.72782321115
103014.6143495302
103434.7729696071
103449.7453817776
103211.5660950765
15742.71348302854
15949.32849270571
102784.8979809688
16124.79606518221
16226.43133874375
102247.4487633917
16321.41719870368
101646.6008097935
16546.74495120112
101019.2623705116
16768.49147828501
100381.8811514701
18322.59672805612
99725.97613926089
99110.45261306825
98501.00050834448
53394.47343475738
52672.64236256845
97891.24204159652
51609.94254001058
97172.06457742756
96507.58427835008
95935.90080402074
95433.14135704775
53949.720453638
95030.52648959795
54283.68588085495
94716.85252908047
54614.52806445841
54916.55692070403
94320.96304979043
93926.14387897942
55497.11855941148
55747.90737301833
93536.0425552769
55965.78008720025
93136.00672092686
56146.17960204279
92745.96529992108
56305.70574007869
92347.13050131939
92470.62577449676
91956.06950423132
56778.57038765038
91555.3928526778
56958.72193831467
57140.47902635094
91180.18070031455
90872.65551743686
90568.37351650711
57972.14432566796
90304.24925881566
58193.72514953491
90050.36417050316
58426.10740204249
89818.93170901196
89595.82036184851
58938.7956682972
59174.76309738672
89380.65000765793
59397.14317726182
89163.63069599149
59597.32383498371
88919.63909404587
59799.92973977099
88679.52020106712
88421.3185052582
88181.43278435557
87940.63437687501
60850.13865739196
87701.62285271953
61033.61808185424
61199.05492606022
87472.41381676962
61350.25863019346
87261.91364614978
61483.82919336467
87074.12050448684
61608.52169355105
86913.24885600449
61729.02454732326
86746.98357468274
61971.49076525911
86602.43867995283
62101.94451346714
86463.7403422452
62242.42215005221
86328.68428447736
62391.45294482878
86192.10589917451
62547.67510516555
86058.20630143926
62715.47353237176
85896.50424727878
62886.61358934167
85735.73515265426
63235.02455743298
85569.9020132196
63422.52757780199
85397.52973032009
63588.57280394229
85225.71906798032
63740.37854429704
85052.44569699922
84886.76825943189
64070.97365867404
64253.70433512467
84691.24235614389
64406.56963406099
84526.22163423743
64531.85313360779
84366.30077344811
64656.25180965036
84212.09847938413
64786.45469808226
84060.43193470022
83922.37965996571
65053.23485185661
83769.9199620908
65167.95964021356
83642.71868204231
83508.07646567799
65473.35728432368
83374.53690370191
65565.83336071756
83223.6512472998
65660.53346497873
83105.33354803234
83015.9941797588
65834.69238183688
82903.60218714115
65941.24378198131
82776.60545151551
66052.96791545175
82672.08351343268
66148.97902106601
66234.27818479791
82565.26286179046
66321.75316458489
82453.57317755406
66409.90822095695
82348.51726264779
82212.67843283691
82097.63012020568
81980.43177881984
81863.13005537784
66856.60814891742
81749.05418411984
66929.47656270878
81645.61135743539
67004.79945340309
81563.26405805704
67080.71170780428
81464.475567321
67155.77191292141
81399.25609129382
67232.54908059849
81335.63754736709
67314.19339788157
81273.86911677585
67393.30134168458
81213.58004931058
81158.90325789298
81099.80083805956
67646.73088177206
67733.44650048506
81051.81740071152
80966.12890133304
80894.75251771984
80803.55334970888
80716.04818903463
68129.65951742795
80583.96752274768
68198.61904530016
80483.1828405839
68276.80829703208
80371.29411469511
68347.82796872077
80250.8090725759
68416.22012175152
80138.13177461222
68488.75661752663
80025.93320253066
68555.88451042534
79916.97741644082
68621.60005820356
79808.68118720526
68689.51204303557
79721.50511087554
68756.34982112695
79600.59969666298
68826.5377583868
79514.57627092037
68895.19972244963
79426.93235573334
68963.23213186256
79338.57062893598
69026.29722832906
79262.25368448655
79189.50124845191
69163.47619616626
79141.9872446339
69232.98404977824
79068.49215745523
69296.94768552548
79014.98564036324
69397.6042808643
78959.60848699656
78908.73460783959
69475.62352561559
78856.73252602165
69531.15317384254
78835.12930925087
78831.38497181082
69594.96194964602
78806.49123255401
69658.01803469936
78748.65682469195
69719.63158522632
78709.56316313562
69776.25396628887
78675.4212691766
78654.19784085163
69896.62765266652
78579.40272174714
69952.92867378722
78529.78920302649
70013.72729483461
78456.08142058237
70076.79212307614
78396.65715711254
70139.43201085461
78321.03682205419
70201.74224106157
78196.27491380023
78095.66676457564
77990.4095379441
70371.40321468016
77893.50423881158
77797.46806911404
70453.1154123583
70520.47209639833
77701.4979339077
77615.71527251802
70591.61960015097
77539.53508648316
70659.21487048318
77472.15878407085
77423.08879152591
70784.7052645037
77346.71347332782
70846.83632462379
77285.52954296413
70906.67435379607
77214.10784620231
77110.29300882612
71024.70457403477
77002.33888827883
71091.30914918245
76859.06168710924
76703.55982855381
71156.68510679854
76713.76277819939
71221.73540448322
76489.29806884899
71281.50067401923
76307.40524179694
71351.10509189231
76122.83488888576
75924.41116761614
71418.07542814153
75712.52506855065
71481.39132110232
75506.32297925722
71544.6315903545
75292.85027090099
71619.67782177881
75142.37591247026
71679.42372702836
75006.90962940214
71742.12972812144
74817.52663900056
71807.59566479399
74645.19511122387
71872.76963503225
74481.33831782189
74321.00172668294
74164.13302038788
74002.91511267149
73840.39892637281
72112.45774342639
73664.47182722727
72172.31799772185
73474.31145085208
72227.29394102069
73292.63339187736
72280.52873413599
73098.84853074454
72950.52263314014
72342.59931126569
72780.80762855554
72400.14008432213
72633.21883595716
72447.95256361878
72511.13867757845
72502.29059652361
72418.10797021822
72558.23991878421
72327.99749630869
72617.98479163839
72253.42922117251
72666.27524964539
72208.47904052686
72161.6808806952
72129.85427772623
72123.01501407864
72825.36921644762
72124.87312445919
72880.30736525211
72142.07359627154
72933.73181313038
72172.98107685267
72237.46925319292
72988.14677969967
72213.7212748618
73048.76819401559
72315.75086127537
73100.53425021848
72436.01610050142
73152.99266143425
72550.43051219643
73198.20580759733
72705.25842761179
72910.00217589135
73175.75399079597
73026.0124071992
73295.35571727443
73269.92350443792
73342.99515476203
73493.42998255488
73387.95976275037
73663.65960660779
73814.28677111845
73969.96958715691
73490.81679009025
74087.44185287396
73537.10538354976
74069.23535481795
73584.77304833411
74074.97623507839
73621.4646347396
74023.33657915924
73936.57735718318
73839.28288876955
73702.69208141345
73723.45290834318
73743.61266414159
73572.95913627314
73781.69839375767
73794.41231522294
73572.02780087295
73451.70480015606
73343.95152380344
73294.04689994089
73284.4080542944
73311.84332141418
73373.24938343068
73424.36949817422
73478.80005703677
74052.70207127123
73540.72143050596
74097.50367764516
73591.25931322596
74141.79712336729
73600.91693446941
73574.33573947263
74188.90064400273
73508.03726522847
74222.49672260125
73428.49156649232
74266.67682939391
73294.7128966406
73147.19614502777
74335.85110301209
72993.67119854987
72808.04491670938
74370.42494659696
72689.8602117509
74408.20022312929
72559.51764960981
72444.28221984339
74451.10548377127
72367.09646785501
74497.50025897207
72318.56883944312
74532.30108760191
72290.64245515526
72297.6810152321
72351.8839943022
74607.94419090952
72434.28935347061
74654.32582062059
72520.99710957603
72635.89844727372
74699.32348356853
72750.36835310023
74739.36611055383
72866.58909748113
74776.98443535059
72985.46297630132
73105.39366016351
74812.44426856464
73202.29741665695
74854.45649800632
73265.63640373709
74884.99928782904
73321.15811047544
73360.87129737828
74924.98139144258
73362.02885513511
74966.28228892808
73371.79873593991
74999.78762187777
73337.40315497863
73270.31614670013
75037.09367192379
73217.03303435455
73213.5826682781
75106.64838915165
73188.85912650164
73181.04750338441
75147.22097210248
73165.20703862217
75176.4569574581
73193.02903728379
73199.45535713922
75206.96420471548
73220.33670432837
73273.05628708404
73342.98547362223
73429.33637929967
75309.72410452692
73515.70289295257
75356.67012773761
73597.98784571201
75389.74086611017
73683.53602244565
73750.45779248892
75421.83158445312
73800.03626350262
73836.11983886163
73863.66828360345
75479.99433065898
73892.85370495914
75521.86461990039
73927.74128719624
75563.26341881051
73991.2159872842
73987.32692804979
74114.6175799144
75600.72527525484
74264.77023952227
75631.50669285883
74425.4097501049
74592.35753714835
74749.39174900061
74886.94728993192
75731.00142112334
74994.71380550835
75090.03944805459
75774.93888338766
75140.31284555624
75155.57721663367
75140.91456309492
75108.81370755465
75066.528988958
75894.58486093246
75018.78500712292
75938.33000248981
74958.00508805276
74894.83077695343
75967.92833391223
74814.34609365667
75999.87640494875
74721.5883238621
76023.38070095897
74636.00436190418
74582.3122683269
74578.15083425627
74618.31471362316
74700.29730090682
74839.99499013949
75016.90877734465
75213.36808427206
75400.65679825112
76194.92245232991
75573.8577171151
76244.09403208955
75721.37133675868
76282.78319983913
75849.78975089848
75940.72631546551
76012.91103432805
76076.02983650367
76130.66144458707
76184.27045154996
76248.25928047468
76325.81365561347
76408.73652809131
76500.33710837789
76506.87308066081
76586.05766537042
76561.02486896109
76655.2173729012
76597.63138938099
76698.65468314238
76704.44825529773
76640.101435976
76706.57270050046
76693.90114785764
76640.253201018
76747.58166675281
76580.84650103691
76527.83041627851
76794.03571216356
76518.74077586985
76572.26731025627
76852.45023826958
76529.51174499396
76488.65622669751
76903.29855716636
76487.92931657557
76511.48207247647
76941.87868610605
76547.64207215275
76980.29970243445
76596.47097270079
77017.08702799116
76654.36160373832
77065.61854283771
76691.44395989207
76727.79058467495
77103.97376469249
76757.60066196343
76759.95840605354
76805.3826540828
76867.87758111094
77237.62740499071
76925.48081208927
77275.8103754636
77000.14063344363
77067.9947703573
77311.25069033563
77155.04622658671
77327.72145965172
77315.36831436708
77209.05081191577
77365.54784893659
77250.52777838876
77406.51810153802
77309.09531984461
77357.24776800348
77459.22020792559
77407.90189822839
77484.95215611819
77496.26213431016
77450.25620427761
77500.5533466732
77509.16553998488
78511.32279765939
77850.46489123271
77509.57448628168
77498.65248230625
78287.84701435761
78559.36506553374
76693.44907749149
77565.93882512758
70071.59068447212
77610.69818970661
74637.64861397103
74842.34353423084
75048.42996940311
77635.36145339011
74321.29481401743
75231.11698846403
77741.73783664714
73156.12251759045
77834.10886207742
64257.87098688502
76358.97720819502
77482.01839972634
76635.02749703794
74502.14203898011
76262.41411441192
75462.06883280164
25816.14361734365
16772.23361794581
15764.66144097737
15511.04725598429
15248.05477274708
14988.39516266031
14792.09190512424
14678.04884449574
14585.4047262848
14439.05343953665
14198.76786280276
13924.48686547259
13749.09566889845
14728.04039669694
14238.28836223554
15486.21577662882
52417.30940502227
50447.97539779868
57536.20127333255
92095.15832896823
90743.07485408353
90462.96394245466
88290.03867301224
88530.77387529031
88054.36820212266
87825.88673165305
86870.15163280741
85958.92821886484
85778.50128640888
85605.59360778153
84768.96939900788
83859.68405333249
83580.63260875063
83710.26529197468
82847.18977453884
82282.66648279542
82153.12940267443
81539.3442507679
80995.32158499664
80624.44971413627
80503.79031424795
80396.64371811335
79674.08016934704
79567.33018493882
79483.59711337065
79079.96161638037
79137.93542553959
78854.45006825004
78786.06686204663
78747.81702297478
78488.39422463026
77845.08522224211
77452.89949903103
77208.39762439905
76512.04232279395
76355.21067446626
74901.35868251491
75079.50103687344
74751.70363196988
74582.42330853379
73040.25624447147
72922.85576557847
72759.44376258622
72645.62051941009
72551.52316058871
72450.4775220827
72379.09549706989
72392.16401533669
72817.82043151052
73308.47551143025
73511.70568376218
73656.24412541449
74105.00322862736
74052.73126854887
73470.58765006282
73535.00944880211
73495.33070142937
73435.97097981308
73332.62430674127
72759.28533832997
72680.74082435759
72567.74526204845
72497.64011325951
72453.06869961889
72736.73410042636
72622.55527309078
72834.32437120444
72940.80883762406
73326.40574483639
73404.49562966014
73259.78791397462
73277.78054013295
73257.54300680441
73291.7757588899
73578.6528791001
73493.37424372585
73899.55548820745
74206.90959133304
74334.25134546839
75131.49402619203
75152.09357986206
75139.52015657717
75116.54984502925
75087.20991732948
75040.90906025976
74986.36038286224
74680.60249909818
74740.96401470844
74818.07379822205
74949.1784724709
75954.67356545912
75867.47485239686
76027.76096740496
76348.92838498914
76680.42486374066
76558.37561659201
76547.33658477591
76856.87697662352
77355.22363096179
76736.8844443495
77682.28032257277
77289.87946068976
77262.45186627291
77227.71954793716
77201.55004732366
77158.5679639127
77112.17570060212
77069.33348417941
77035.58632914425
76991.53354325407
76950.32273489599
76715.77667505408
76680.66154305713
76471.7464605156
76458.41637948356
76423.28596926352
76390.84417016929
76351.48278916802
76313.0912839552
76165.02826778824
76142.58568913231
76116.07984682455
76083.54057120983
76051.26158635769
75866.18419437305
75840.14481132144
75812.85501144484
75698.00914697257
75667.35765911924
75442.43194655035
75414.45274185733
75274.23137697131
75234.78554159906
75066.75768302762
74562.65919808528
74296.4769920563
74004.44340720811
73963.28831902136
73917.11640556983
73874.47842851828
73838.70584788412
73659.78493927354
73432.95077507348
73241.72905886099
72987.70189053407
72766.19274053001
72707.95752599469
71977.47991297266
71915.16865787045
71732.10423090868
71661.55260590007
71592.45495431984
71530.39925104413
70959.11664617479
70695.09812948883
70300.26051991897
70234.0839363189
69827.2090600831
69321.94207733263
69066.72920900726
68053.57791694271
67963.71494036165
67869.90541846951
67772.56166912903
67529.4067135823
67440.90505317175
66804.04422359273
66711.3422281354
66612.19484820437
66493.45057051488
66378.23604776841
65765.25950898517
65371.20547418559
65264.41415136241
65161.54151186976
65045.58163967913
64916.83346232722
64757.1474749375
63845.62212188219
63017.67593850474
60198.71740449875
59972.08175855624
58633.98981726758
57727.29707226099
57524.3126459486
57324.71556213323
56575.12553636928
56405.77199966431
55268.1525789833
53511.13149709473
53011.93495527359
52447.30154019116
51927.78804205055
51594.55200773453
52746.74910727172
49660.37866519993
42339.68062652793
29756.07832443258
17345.63182408478
16932.55931231496
16852.96312918911
16631.34637783154
16679.47363982983
16564.64741238571
16406.74152215111
16205.24383743749
15985.51031165037
15669.53277140665
15426.04552472912
15165.87019655981
14889.67051731955
14638.45152166904
14459.32575027225
14369.03954025068
14259.87402619473
14049.7930957239
13770.35548599799
13510.55124057061
13390.69777580026
13452.1789927458
13640.89489136294
13980.0958300811
14530.80266931461
15453.54828992565
16820.69390473914
18983.11254749282
22820.53188692985
29875.18118444886
39957.58285296692
48249.04145880559
49070.43251144183
71589.29353468407
81291.22662218472
88535.94526744794
93368.9645316316
96743.42756573546
101571.6440309425
102611.2503236075
103167.4259119315
103283.1086889089
103127.0426420466
102781.3884074303
102304.8634368016
101749.0131235916
101148.1183282701
100529.6116710548
99901.4342384034
99281.78573490809
98659.66420750879
98043.25011557098
97406.09032687558
96793.99017053821
96233.22404730083
95731.47960284282
95271.96294207654
94862.63487248434
94453.29576245815
94053.05888502505
93654.65824777441
93253.64984655973
92857.88117168241
92464.07014527849
92069.27522405016
91718.79478980946
91364.10835451646
91039.87499988513
90701.02180123005
90421.09226737812
90199.56680146238
89947.79849781188
89702.53664651705
89463.31178887433
89239.50098849772
89005.87717981823
88764.03470082789
88485.97394303237
88240.9224929622
88001.12222490062
87769.15240401856
87604.41380130081
87397.57121229944
87207.04906635043
87028.85214033259
86814.57899161473
86708.75705561068
86560.83279141382
86413.04774614009
86264.59446537508
86109.57286743612
85949.87112020563
85783.22486432249
85621.70553191069
85436.06767046174
85269.05064163642
85102.42581268074
84929.12358633321
84755.33556471413
84589.61949761555
84431.82901119925
84279.23574465526
84133.23658772906
83993.45425214354
83801.91542532186
83664.67952251632
83540.45450398889
83313.17351911351
83434.79539657579
83181.34332181311
83073.45823687667
82950.07620076754
82834.11621194694
82619.95384361637
82723.22006985378
82500.64282632279
82385.25807911583
82273.35677558459
82143.60827136764
82038.92493969899
81923.19798995755
81811.65878073582
81707.97780562664
81607.74764204473
81514.76379216039
81387.44781876163
81445.40898281916
81308.40551276974
81243.80162113576
81182.02279039742
81112.00798712077
81040.99679970551
80981.09876154725
80900.36526783422
80810.45792608967
80707.9094049414
80602.83358868764
80486.26407412761
80378.03464898746
80283.04170165349
80173.9462780491
80066.09657584432
79958.07912665443
79853.57753864725
79748.96322008607
79643.44817549041
79539.84340621736
79454.24467560036
79398.44395372427
79323.43215857114
79247.84746730659
79178.91751691519
79111.8409250737
79036.27527923026
79018.46046237105
78964.71088241253
78911.84354001394
78863.53637647208
78827.78569678395
78762.94139867413
78728.02870843686
78701.64760945561
78666.25462689668
78602.92504215869
78541.5122911746
78465.70019473159
78401.96966627694
78329.95857896123
78224.56980140663
78128.47420576158
78029.4273659469
77936.70070363504
77825.24176146387
77751.70132240688
77670.01200739767
77591.8630687812
77523.36770477038
77442.37157719069
77305.59031221084
77385.4575261094
77215.86768038223
77120.30962156079
77010.70872226694
76876.90375714601
76701.98384780549
76533.76028586457
76728.39106763879
76357.46374289693
76180.13373486898
75995.41477203321
75793.47748646967
75608.14514451534
75241.75333625868
75432.36090629442
75057.52060353979
74913.84623953965
74738.79107836982
74572.61117914024
74418.58785131869
74253.64621551117
74094.07271977879
73938.45453392787
73767.37610545516
73583.02816371211
73411.95654150183
73240.47337407144
73003.49292208244
72863.92231239409
72701.68213260335
72578.04324557567
72481.42299118843
72380.34189090494
72301.66834898893
72329.8042460313
72270.50335609134
72240.72717058175
72227.25710242132
72222.50267409871
72243.93211573384
72276.51220144166
72285.61896379523
72265.21579608854
72438.67905933294
72538.22988144566
72611.69640639811
73059.87744283694
72914.21523555914
73212.63505445894
73433.22138776875
73588.47275536825
73785.46473149127
73937.89479875777
73986.17811821996
74046.36916139635
74002.12976647254
74021.52299083243
73948.15042425918
73862.93125200445
73650.25540880543
73508.92128550337
73648.70286121238
73421.2349278347
73424.19473262971
73405.32981322793
73415.68860629953
73430.30260341332
73478.19396190585
73453.12781801505
73523.78514984262
73579.91124832435
73613.83274816192
73615.95600833115
73590.05558143088
73546.23230550984
73446.99907401427
73339.59760445327
73211.16826744589
73078.4343038807
72935.79233703025
72758.73569984407
72663.68402403695
72549.34767645774
72472.4738154545
72421.78493778792
72423.15239929267
72428.06561175626
72473.7412194903
72533.02380218702
72583.15675184643
72687.6546928716
72793.44028052795
72904.70494350739
73050.42853581863
73159.83131522097
73246.5561421023
73302.2999518039
73407.98954638699
73370.2623622031
73425.92119544176
73398.75050594467
73388.89262283329
73347.46080411288
73318.8189926077
73254.47909541811
73259.99855985728
73271.06990315083
73270.04084283589
73241.15823556478
73266.7589222403
73355.61631175317
73311.76041740042
73418.526941497
73469.52560673711
73554.17950825948
73655.96832443979
73735.15998493007
73799.22185568321
73850.18053755145
73874.26552741572
73932.88022401549
73970.25977392009
74015.70811536946
74081.69957849206
74167.1752325259
74301.00890991693
74483.18695554034
74630.86432675189
74771.69319944455
74899.51753708905
74994.62595035254
75083.99312778015
75138.26204813638
75078.34065842924
75165.47085217452
75157.07936109501
75131.07714528652
75098.18873816887
75055.47497953214
74995.34233789719
74935.45507155004
74867.32641246762
74795.57371696482
74731.16765003424
74694.23871075056
74646.07741111032
74693.92041122459
74769.80938766636
74900.20548187723
75104.26093534728
75276.68609596977
75445.40589623773
75590.12690043681
75738.55616483599
75845.75033629873
75729.47770457747
75943.7811306885
76022.95662101505
76092.8178273035
76151.64714154063
76209.31700017082
76271.63250393896
76338.53273286112
76426.98210256064
76509.42994683106
76584.18544073493
76646.49960857771
76686.66131696526
76704.26967807471
76711.90806104701
76690.8850598698
76611.93071653525
76667.81825920352
76525.93687123789
76535.58377864705
76568.63963823351
76532.24190423464
76550.83751196795
76604.38921836524
76643.57447596153
76693.40715592387
76735.87771347069
76777.31443029321
76818.23158543295
76840.68852767197
76916.91687830249
76974.52967182477
77042.9645146141
77107.00867472708
77173.58710072126
77226.61785280451
77272.67832221725
77327.94774077246
77372.85797869843
77421.54412206823
77468.87112764483
77514.25745969889
77533.95527554071
77557.15226919483
77602.36208839543
77665.59610548223
77516.32510903569
75030.0432514859
75690.41454402413
78722.80837590492
77531.95560889016
77534.986007855
77529.20848331793
77433.05455612161
77371.33763620023
77295.52318406838
77276.38397630672
77265.65386755257
77237.05568422786
77212.41081404872
77164.53136492636
77120.79421042069
77083.50969898095
77046.90871385428
77000.8245437443
76964.71673600591
76915.74202013736
76884.4902122396
76842.04363789073
76805.42102336246
76763.31031625524
76721.70955705966
76684.33408730364
76640.58977168266
76597.73979266272
76560.5601177145
76531.80361739552
76499.89112325218
76480.06401947647
76437.99880240731
76403.20522157178
76358.61488486048
76319.15449261985
76283.03752928073
76251.36398885094
76217.0787660714
76176.18730690706
76152.85695681916
76125.30417662888
76089.18071613465
76055.78246209018
76019.39372962834
75997.82488019261
75970.34559449645
75940.73723343188
75909.86963849451
75881.20151329783
75850.55138616997
75820.73586876395
75776.5446628346
75741.64119199409
75712.86246507744
75674.0195692143
75628.23332963801
75595.07498322579
75562.44165781124
75523.26150406896
75488.19749040989
75458.03325006836
75425.57125233584
75384.16428580518
75353.34076346819
75320.04454149169
75283.17267083476
75240.68841211255
75197.45679209832
75165.75200339187
75137.52715130791
75109.48397976383
75071.6225506351
75029.94661260948
74992.38831981311
74960.1979080758
74922.31640514538
74879.92852050994
74849.67163926251
74811.93712210539
74772.17476076569
74733.4197519435
74693.68493431773
74649.16499132061
74608.15756658743
74571.14037565222
74520.89670907524
74488.47641897175
74446.57501944539
74404.53955724942
74374.25455263123
74337.98969193929
74296.22674542088
74261.3050459464
74216.07932241156
74181.32227281913
74137.32517363931
74092.50407447122
74050.83997057802
74003.42228437995
73965.61669994617
73920.04325444296
73879.05291877378
73841.03628541727
73791.8035133963
73739.26596776718
73699.10135733498
73657.01685700391
73613.80368381068
73574.54417042639
73527.03989381752
73481.09795504433
73427.40421353742
73379.49593221847
73332.56548506372
73284.82854239836
73238.88600782736
73187.72313265387
73143.42541162639
73092.01964393938
73041.90085288543
72976.96425344859
72927.48716199228
72872.86431793198
72816.10398434529
72762.67851987765
72705.30446976665
72654.35664085019
72605.61385283557
72548.1560738785
72492.83775844405
72438.88265061392
72390.41774674373
72334.86865723887
72275.53011134779
72222.32295069991
72167.61313235002
72108.75576971831
72056.82593053699
72043.33192366928
71996.24036263059
71922.57947276934
71856.58037840952
71796.07473560957
71731.29883100439
71664.49752976542
71607.10365137763
71537.34560162341
71464.34906518731
71402.51408354698
71340.21499262127
71276.27457750753
71215.72954257362
71147.55035101602
71084.31095108912
71023.39556422435
70960.4548964251
70885.65040282429
70826.84337769542
70758.96042877756
70706.04659570241
70623.48187197739
70561.89267700308
70493.68509304296
70428.6117585382
70388.39614925807
70324.36596292515
70262.08382304382
70179.96627172944
70124.47453795343
70066.44064442678
70005.55896031417
69943.04174549499
69882.28742286674
69816.00846523105
69762.44110558006
69706.40819068895
69645.23388252457
69578.29235496582
69511.851192084
69447.17002782549
69387.82829754322
69343.95734398895
69259.65468022569
69194.65751030522
69122.18640360155
69066.46553150895
68999.1671523166
68938.21297059952
68874.46313993403
68807.94641967905
68740.41988262183
68673.88550505476
68606.50163344383
68538.73154032002
68470.1634067213
68400.80920795393
68335.3996461919
68265.96229786362
68194.27304060875
68115.0683596302
68007.32678354713
67943.84220752763
67865.93904698585
67783.73580377875
67693.23711389565
67604.57764443454
67549.83384093545
67456.86407446931
67364.33890634363
67293.52966639989
67224.97507735777
67154.31415926304
67084.43804466254
67018.65490969362
66951.60695986636
66878.4429194649
66720.46919494022
66662.58386494216
66592.91372105871
66514.40215695865
66424.99145430447
66278.00940608041
66190.01905996454
66114.72995434314
66036.36247601925
65948.23418900509
65869.31633903351
65731.7541425043
65673.60817420372
65575.84814320727
65485.7190567039
65340.60842469844
65231.44390165616
65136.64520909567
65030.46888576302
64928.42748243023
64813.3296453336
64598.96603598173
64461.84926789186
64308.55095214747
64164.08724963545
64010.60739301125
63869.66137781421
63676.00621847619
63509.22153143444
63343.23314386559
63188.67891753768
63028.24800546472
62857.01020166676
62692.7963997245
62534.89442260461
62387.56445871069
62249.42512363229
62119.61239131551
62003.22107452728
61878.64131751672
61753.73170091952
61624.82654446084
61489.42335284674
61337.78603713131
61164.96290926808
60975.58983016115
60777.56453371375
60583.56660115257
60389.42732721025
60151.06410594325
59962.70118083399
59757.99478700179
59545.33800582443
59318.8569063781
59075.18922073647
58840.62241261653
58609.18410702959
58403.79429737607
58162.50541527148
57935.97072624554
57664.73961902914
57467.99320569613
57287.71316363008
57099.20650838595
56894.82373607202
56706.36749741242
56554.78968794022
56394.27880372412
56273.70295587555
56139.40031223658
55969.08292365042
55759.19485159598
55516.3137542759
55212.95631119006
54975.87932805735
54673.22797814527
54324.7558771882
53923.27412479966
53482.35597314261
52981.44575585488
52423.9400934473
51923.66948809128
51584.61970231288
51942.96166731625
53208.87105624638
54186.74270829537
51943.0444670311
47966.23330122675
43425.30357522478
33682.49523271919
17544.36516196913
16832.95986680068
16721.97565272647
16555.62963856739
16543.01149781804
16448.41908729615
16303.886668184
16105.97222495531
15889.29679943033
15607.73351569862
15368.17739318505
15112.61210273017
14835.36274867407
14557.00311414399
14334.70671898617
14222.95095356949
13696.78009985132
13408.42941895985
13193.06845025584
13161.77061847999
13280.34841174005
13538.53150554244
13958.63384623822
14722.67828482046
15890.27489544752
17649.30157464328
21333.92139517447
26388.87358379707
34195.91857956125
46849.66440364786
47031.84021435436
48537.16959561822
52352.96353383837
42650.32211792149
69017.99668434905
47119.7532829646
80520.16669524221
51646.45685918272
53301.35048887596
88433.6018609993
52445.34072617724
93377.79048158276
51455.5353567105
99763.91133816009
101827.4935959452
51519.72930801594
102789.3340783632
52035.20379038685
103295.3654471514
52537.65972124462
103366.5223212615
53075.42755963378
103178.2504492422
53499.84212838985
53910.92521860273
102804.8814139569
54256.65293489728
102310.1648076314
54596.29948640221
101742.7033421993
54907.04704743951
101131.2376341808
100504.5234464485
55202.31443044424
55493.74451484535
99863.19517293903
55742.6586520933
99232.83649628217
55959.02743357868
98605.4963616043
56136.65034037721
97991.44039901275
56291.93392492668
97330.67060608268
96697.57507906607
56432.59988615919
96125.56773314787
56597.91237448976
56756.41890582519
95617.01946436972
56933.61090966479
95184.31629608061
57113.28337089218
94800.30393965138
94394.71767898116
57346.53209502477
94000.43924924829
57534.02549384657
93611.20629953625
57711.97072986951
57945.42124656614
93227.01652485115
58167.41611239953
92840.93542634831
58400.55287556133
92382.17770170752
92001.43792893819