/*--------------------------------*- C++ -*----------------------------------*\
| =========                 |                                                 |
| \\      /  F ield         | OpenFOAM: The Open Source CFD Toolbox           |
|  \\    /   O peration     | Version:  v1912                                 |
|   \\  /    A nd           | Website:  www.openfoam.com                      |
|    \\/     M anipulation  |                                                 |
\*---------------------------------------------------------------------------*/
FoamFile
{
    version     2.0;
    format      ascii;
    class       volScalarField;
    location    "1000";
    object      rDeltaTau;
}
// * * * * * * * * * * * * * * * * * * * * * * * * * * * * * * * * * * * * * //

dimensions      [0 0 -1 0 0 0 0];


internalField   nonuniform List<scalar> 
104311
(
82.54820444371491
81.03684177017077
79.95448811703298
115.0257424164378
117.3262572647665
119.6727824100619
107.4397675881791
118.1741961642626
106.9576976163666
106.6171666730406
117.4527721518921
106.1960850623166
74.10000028847772
117.8085740994587
73.90880387573326
118.9348988608256
105.4952743140111
83.80451497171008
105.4476607812992
119.6934840382945
105.3627317966005
105.2611034903933
119.2267387696356
105.1012137565142
118.9951063472257
119.281131217751
119.5163603217854
119.6110575540417
104.4893106526017
104.4600787936597
119.6329972100465
104.4159757040474
104.3437407034417
119.660242581719
104.2661382945333
119.6736054854134
108.816141040864
119.6769882328726
110.9924638616813
119.6816139288752
113.2123131389149
119.6574973817481
119.6092927233307
119.5470838794289
119.6211918086602
118.9105744185645
119.549467815303
117.9200781741482
119.5816879825537
119.5789465735602
119.5503112428944
119.5108517556022
115.1330873124138
119.4280246938893
114.7050022704594
119.364665169982
114.2958838882255
113.9153530998423
119.3347915105681
119.3080781871855
113.5818893711116
113.518402894828
119.2791212734983
113.4581720067629
119.244388330223
113.4262344286419
119.2111978822082
113.4324750557053
119.1712453742132
83.43886467508402
119.1327579324347
113.5114244559487
119.1107345672967
113.5361886504455
113.5797448048773
119.0834861374484
119.0506273561631
119.0061675993796
113.6177560193112
118.9666956344508
113.6167959757564
118.9249048951839
113.6294598642013
118.8956386115449
118.8678050228488
113.6354765962764
113.6218105607665
118.8351490195402
113.6211721559088
118.8033390436093
113.6234891167723
118.7748786585163
113.6392607875347
118.7517610617877
118.7187801333277
118.689963484211
118.6598010533852
113.7396200542336
118.6353164370462
113.7316901602003
113.7183582779152
118.61520717297
113.7162867731968
118.593781869033
113.7176783568464
118.5678595539192
113.7303444160307
118.5447518916163
113.758314571101
118.5117490201674
113.7834964353457
118.4848178509275
113.8536020363096
118.4608068276205
113.8862587756112
118.4377282581614
113.9159279383376
118.4137646395286
113.9496880079976
118.3930779412807
113.9902766889743
118.3665806432799
114.0418240028859
118.3439146034015
114.127091557387
118.3187677862357
114.1460124176494
118.2974965128995
114.1777458620009
118.2791909865668
114.2167719475998
118.2593954794493
118.241848747944
114.29204058435
114.3090977294568
118.2108382240715
114.3242427509111
118.1872082461424
114.3340366931997
118.1658906017095
114.3594371221642
118.1452083763019
114.355471886023
118.1236744337094
118.1061777221593
114.3535771162718
118.0807144276571
114.3558813162666
118.059435294491
118.035650763034
114.3587296435212
118.0136390833538
114.3466698739959
118.0158836212561
114.3130858356469
117.9415450835995
117.9363543438738
114.3484127831914
117.9332148312392
114.3550534429852
117.9140582415181
114.3668921517497
117.8988038138689
114.3809888307736
114.3957207538649
117.8836070633504
114.4163625870841
117.8672165050088
114.423239608705
117.8548353385756
117.8322086454226
117.8113151228499
117.7953458574262
117.7819029645607
114.4840557754147
117.7678104710257
114.482266456847
117.7533207936689
114.4794808757345
117.7442045361713
114.4845134361153
117.7217579597445
114.4944596385991
117.7074244470223
114.507431956423
117.694032394645
114.5239141909674
117.6806788764851
114.5476493474131
117.6668998326284
117.654162649875
117.6406599461781
114.6114989081616
114.6246041254509
117.6328574924107
117.6133121577384
117.6030866498757
117.5937028363194
117.5880380749918
114.6955698275991
117.567635415975
114.7005652172335
117.5535214023283
114.7060656971864
117.5357276842057
114.7143005893398
117.5214724769491
114.7235842431075
117.5112521764392
114.7357192576451
117.4989175634444
114.7475980788823
117.4848534016224
114.7586146528889
117.4693580322309
114.7700136485492
117.4605737669124
114.7811197656769
117.4395465010444
114.7932645786773
117.424785238984
114.8046819236899
117.4087366709675
114.816551310066
117.397548047066
114.8336807893129
117.3893793628671
117.3780655769703
114.8632228923542
117.3722974578157
114.8746832061321
117.3543023504246
114.8854676446651
117.3381442230346
80.45123867323146
117.327596794376
117.3190105351688
114.9261402789336
117.307789536364
114.9346746968236
115.0084048849936
117.3085729826934
114.9416349918747
117.3056970564044
114.9491340080604
117.278904574421
114.9581845754686
117.2878325836412
114.9709870601856
117.2252890404577
117.2377038574056
114.9945737108415
117.2370989257004
115.0053604228529
117.2367477487169
115.0132411962577
117.2450295168723
115.0224923296413
117.181253032532
115.0328593726173
117.1866635703108
115.0444020861007
117.183722068643
117.1799726610717
117.1698133453096
80.57392683902634
117.1614022964915
117.1450613686162
115.0972340938896
115.1075929581841
117.1322913256018
117.1210498839824
115.1160690306942
117.1064739345897
115.1289335092085
117.094932003341
117.076591967301
115.1534069287175
117.0597991409585
115.1671814890348
117.0504350927424
115.179028024593
117.0327165842889
117.013629002961
115.1994925426389
116.9972348165258
115.212249831627
116.9752328472897
114.668530777502
115.2205909352712
116.961901393052
115.2297260664939
116.9366077228612
115.2391883377312
116.9002431596861
115.2502295681068
116.8749268087761
116.8503177247588
115.2603650574025
116.8198851232977
115.2717974308107
116.7856036065007
115.2761299347331
116.7439683027388
115.2918199052415
116.7121733926018
115.2993046881247
116.6768902870051
115.302391279507
116.6282215436694
115.3061444772876
116.5834431532793
115.313110357563
116.5392942455379
116.5017790201921
116.467505131231
116.4329009020083
116.3983007535574
115.345644926078
116.3609339148221
115.3534787252489
116.3197360127246
115.3613055830129
116.2797507085057
115.3711074058444
116.238803642541
116.2039861014807
115.3837899967089
116.1610500581578
115.3967237857194
116.1239875470098
115.4080346738069
116.0925180771879
115.4196341772405
116.0677752741929
115.4304129510297
116.0468465456601
115.4399491755609
116.0298524276859
115.4462722358796
116.0245180258538
116.020268124978
116.0181645763302
116.0211807924391
115.464844218991
116.027747626256
115.4691727850677
116.0416227615393
115.4717117748419
116.0558170167069
116.0826380382302
115.4746558986554
116.0817005807464
115.4812493874215
116.1099802115544
115.488540088623
116.1460658587162
115.4969372707348
116.1780327987923
115.5064040064146
116.2132579261184
116.257773326521
81.40926695940685
116.2724800527079
115.5236517750281
116.3162380160347
115.533577312302
116.3573631478988
115.541777529643
116.387491362378
116.4202149200822
116.4571684462878
115.560023528466
116.491978118062
115.5723626820649
116.4958822818049
115.5822280001525
116.5103490656927
115.5922098693232
116.5165608099193
116.518588196549
116.5148174783871
115.6122366638724
116.5059340449137
115.622972271887
116.4785585557645
81.57272196067291
115.6329048126056
81.53552390666597
116.4528060638612
116.4192853712712
116.3943284435385
116.3745503071577
116.363234813225
116.3517180589675
116.3394153005734
116.3310359440264
115.6815866752996
116.3344834318928
115.6858265744844
116.3439646535265
115.6892418569979
116.3525705797077
116.3544186442389
115.6951353015358
116.3531757903589
115.6995514155436
116.3429963302718
115.7068736681543
116.3205017424598
116.2992191541031
81.02116789444968
116.2746348774339
116.2395781497791
115.726280894908
116.2053582373676
115.7314260514873
116.1632453996982
116.1226159943577
115.7362960902994
116.0905275584863
115.7432487713629
116.0634387245186
115.7534251917958
116.0449586810636
116.0360557157022
116.0350683437506
115.7795618643758
116.0534043424813
115.7956423911636
116.0712640472872
116.0983261341088
115.8086626908059
116.127816888263
115.8205631586308
116.1562856408457
115.8328948287758
116.188628577282
116.219994248626
115.8445319942475
116.246274220764
115.8556135992728
116.2533642918832
115.8610089343703
116.2620531002543
116.2706963422011
115.8652500197885
116.271211224311
115.8697006588249
116.2662264110862
115.8706747167261
116.2481130303756
116.2291216111024
115.8837188219115
116.2188091194418
116.2010242512527
115.9028847073079
116.1857095332771
116.1722800883723
115.8932110637049
116.1665900086205
115.9023120325267
116.1602042376386
116.1494770152501
115.9148449425636
116.1452495010123
116.1504722656208
116.1612361522763
116.1757873510092
115.9575029192997
116.1927916051793
115.9717594500917
116.2150142800066
115.9818935923294
116.2383572618226
116.255742241514
115.9932207694788
116.2709613354199
116.275671053295
116.2821667874262
116.0156637103257
116.28815681116
116.0262271854858
116.2930821840717
116.0345133392871
114.0678772763147
116.349234821841
116.3386571349108
116.0422737054466
116.3469709102328
116.0515509663465
116.3751021092964
116.407508074734
116.4361285476138
116.458949357765
116.0837519165068
116.4797738853487
116.4967452941759
116.0960267447416
116.5065791568453
116.5092414288581
116.5053649865332
116.4944335272472
116.4842538603123
116.1303215063496
116.4718952917049
116.1410442950055
116.4565803745606
116.4446660470787
116.1473567403887
116.4327043422581
116.1551232495663
116.4174395480297
116.1647519734659
116.4013613420746
116.3919199291171
116.3906779531391
116.3992966324572
116.4206822514734
116.4507283493292
116.4840531326461
116.5173008358117
116.5459619586754
116.2387885094236
116.5748088440794
116.2506105725965
116.5944885472131
116.2606948880224
116.6113064501704
116.622784105049
116.6323387490102
116.6432424015395
116.6546058675228
116.6660676932797
116.6830082560606
116.699626553735
116.7189210758933
116.7410526829241
116.353415570914
116.7609874155219
116.3629040605898
116.7798325488848
116.3693907392975
116.7926244389766
116.7959844011152
116.3789200945045
116.8004328551505
116.7964558618305
116.7820516737027
81.51274857523224
116.7677986363883
116.7553193419689
116.427971667922
116.7496026745636
81.74733141438472
116.438115074333
81.736968244929
116.7405181840809
116.4452125433021
116.7415467840654
116.747087161692
116.4511295918289
116.7558705002834
116.4585505404703
116.76796156667
116.4667723581692
116.7846265785178
116.4769640313703
116.7962842915375
116.8074052561825
116.4865969736197
114.5881059107983
116.8798680290142
116.8347692830254
116.8259346736542
118.3808563131517
116.8317465016161
120.7484734394147
116.8410519001633
116.852084052292
123.163442908203
116.8639947051764
125.6267117663671
89.71789438911259
116.8683970310077
95.20934726888139
116.8723264488427
97.11353421425902
116.8778282602111
116.8809336072154
99.0558048985442
116.8841371135013
101.0369209965151
99.0558048985442
116.8903648416622
89.07687305546419
119.8857431222671
105.1188126047743
105.1188126047743
122.2834579847124
87.33026770143547
150.1355496524423
109.3656126340072
107.5863609850255
124.7291271444067
150.6468787914207
127.2237096872948
147.6930184229615
144.7970768852563
107.5863609850255
129.7681838810407
141.9579185149572
105.4768244951231
132.3635475586615
139.1744299166247
135.0108185098347
136.777020794126
101.3810308488303
137.7110348800314
99.39316749885326
97.68102765665274
97.44428186162084
95.76571338887524
80.85199565387013
74.69474636994352
73.14079098537948
73.18391498075115
73.21930418482432
73.25937605270582
73.30689214524934
73.40531284825416
73.58760013188935
73.69954842802557
73.77070443937835
73.83016826422151
73.86350532552494
74.64900877840175
74.35418454102771
74.88743471083734
80.53635191524982
80.70428630680334
82.14707895355482
83.41191733190432
83.32328392343578
83.29564725714256
83.1018906477978
83.12206689483196
83.08077213908338
83.06362900541117
82.97711212004316
82.87547112001684
82.85960127970267
82.84199449991348
82.76642660512827
82.67531920916261
82.64376746190646
82.66042042458528
82.5586333180414
82.50132555599798
82.48669676029263
82.42399247294907
82.34806312799883
82.31608212903531
82.30620007006218
82.29374163150311
82.22639947441748
82.21606423839953
82.20482768304802
82.15540171882603
82.16671498320005
82.13268353091883
82.11392452347957
82.12017555283479
82.09020658435931
82.02021294815988
81.97227345493071
81.94155369418463
81.87426217383874
81.84880118401513
81.65834269936778
81.69241857628204
81.62699068954026
81.59607941789066
81.36131027732668
81.33124820407021
81.30529853943018
81.2832648951092
81.26594098962931
81.25128754414094
81.239388953122
81.27569092356197
81.36780203226978
81.43990450765942
81.46869865428077
81.48979320609941
81.5656841244973
81.57581317886192
81.51205407949374
81.45026541567294
81.45613230071548
81.45863959223087
81.44288979568829
81.36227099113161
81.33278529303098
81.30433823398255
81.28187121477914
81.26290471371978
81.28733146061269
81.2683836868184
81.30797968860851
81.32791235262292
81.39588288025584
81.40488841359773
81.35923651012224
81.34851376675674
81.33065599490413
81.3231452295815
81.35347234579326
81.34156665782173
81.41150116838341
81.45560146391908
81.46142243165211
81.57317364183969
81.57503765654816
81.57232352911286
81.56466976541168
81.55754237617319
81.54888940850165
81.53816652568618
81.492024327495
81.49805877661937
81.51303211826298
81.53406917535784
81.65453562574186
81.64649943807603
81.66122539928581
81.70833758658472
81.7761335344192
81.74156757618739
81.7376884288513
81.80295903545583
105.4768244951231
103.4086514658069
103.0576594164454
87.95871998932607
86.23403920522163
84.54317569139376
82.88546636411152
81.57922738778254
81.56861579705961
81.55918292892198
81.55243833409757
81.54530253855927
81.53954595581808
81.50275226880936
81.4921851877605
81.46084032277648
81.45389192966861
81.44357646155879
81.43322629857043
81.42063538383326
81.40896809287929
81.38147532773633
81.37380689250267
81.36418947424762
81.35318980163025
81.34250712769976
81.30614047722685
81.29850553595284
81.29133903491272
81.27183870638784
81.26330238167529
81.22262884939688
81.21374095420779
81.17911691063382
81.16842130571624
81.22329217080454
81.05406924200705
81.01712807805617
80.99024408870044
80.98753875022589
80.98103573093218
80.97457174583353
80.96714842577444
80.93808265770301
80.90050374753153
80.87665425673201
80.85066289837297
80.83669243168197
80.83391666735449
80.74731162042521
80.73970257844358
80.73005021030134
80.72788910440832
80.7226485635031
80.71166308355866
80.64687415097973
80.61272487121622
80.56637299107334
80.55512141515676
80.50159062750561
80.44520906255983
80.40655312649348
80.28502110942128
80.28094802224749
80.26996933375381
80.25971020409969
80.2213172357523
80.21400373186155
80.13209807256719
80.13021728920322
80.12412759652587
80.11813405016687
80.11450392597261
80.03249598735212
80.05707639075196
80.0612572114663
80.06734238604017
80.06572907881201
80.06671729892155
80.06705571961676
79.98339805951545
79.86447858302255
79.56677406307233
79.56504862450952
79.54083413567882
79.52325335519394
79.53476036684035
79.53466765169253
79.43180697537035
79.41855348731703
79.57085500178771
80.85663241281351
80.98914713536129
81.05406360591218
81.29161637259404
81.88612794234314
83.94836149035309
83.40970201071325
82.54502076694763
82.46903556694754
79.26666240575503
77.71241412328924
76.18864129734239
76.18864129734239
73.00291421837963
73.05724827249675
73.10782428537146
73.13870347702847
73.1591704371144
74.60360680508707
74.64759328036618
74.68369026852081
74.72456357375994
74.77302998815432
74.87341910521924
75.05935213452713
75.17353939658608
75.24611852816592
75.30677162950595
75.34077543203544
75.38697995324792
75.58200029424727
75.84126823184826
76.14198895396979
76.38518340505409
76.72945973141111
77.14306986735804
77.69123670932744
78.38675305591468
79.44788408840272
80.92961219972049
82.31837203293941
82.14707895355482
83.79002053262592
82.74077132343498
82.23565953784851
82.48477760706827
84.93885213695512
83.4777188961377
83.31553928404141
83.51580227861298
83.68050014106744
83.74680329601503
83.76216455185025
83.78124065425119
83.79059681654961
83.79296527889629
83.79620400331829
83.7793185767554
83.7455676332475
83.7020115279838
83.70368066303541
83.72623991519896
83.72432049199158
83.70427119677062
83.67664326681165
83.6186511230525
83.57428935839546
83.5533730356923
83.53466945188949
83.51439499730134
83.49007640144694
83.46683779811011
85.1076419685857
85.08015567854241
83.39649746633469
83.37741922272333
83.35441283895646
84.98974960190449
84.96156020228541
83.26638707925814
83.24589601639784
83.22640806833337
83.20354366146796
83.18127160860254
83.16134480316444
83.14515880108826
84.7845082327286
84.76392846075376
84.74238758186505
84.72490158551939
83.04954931564453
83.03454818823157
83.01639843628384
83.0002193898889
84.63665436244402
82.95825600942112
82.94144446635018
82.9252857895826
82.90850743733876
82.89402345162338
84.53298054241718
84.51679330529673
84.49883438991175
82.82710121846966
82.81428443259418
82.80042442270363
82.78813891414022
84.42175513723085
82.74988185455098
82.73495610594912
82.72047525193484
82.7053980601487
82.69314757352585
84.32882559334587
84.31362883307699
84.29664281114459
82.62992731227438
82.62835577801961
82.57787848821286
82.57424414313095
82.57204598392698
84.20980598440224
82.53731264016849
82.5479527875131
82.52583663708477
82.51716784733351
84.15135206711794
84.13643069549849
82.47551572939493
82.46610356192845
82.45623657046332
82.44609148702168
82.43970865387017
84.07247232240805
82.4045801586184
82.41395672964042
82.39523056768999
82.38558304095568
82.37666498304026
82.36721093845949
82.36174797730648
83.99502439055881
82.34090364280497
82.33433347777061
82.33036724202012
83.96240377161601
83.95232407146342
83.93961646413317
82.28376071450037
82.27660487528338
82.26796868035849
82.25812152560779
82.2472722974598
82.24112191174483
83.87092746390583
83.86038552316752
83.84892423670898
82.19699386313044
82.19127448230743
82.18335302904542
82.1793144263434
83.81004928286406
83.79850975320255
82.14801683776891
82.14200508788915
82.13414860037942
82.13469713767182
83.7753372015372
83.75620301394916
83.76257906389149
82.07638510473137
82.08507745520591
82.08465390660128
82.08440802674404
83.73201071604649
82.04555288094616
82.04934111969554
82.04728159972635
82.04465641686473
82.03754327669073
82.03165420200745
83.66061720712308
82.01127188282459
82.00340108208668
81.99319559447028
81.98511440310133
83.61171892402933
81.95395947398875
81.9605158001349
83.58038476806833
81.92818934517247
81.91671080184499
81.90130591681663
83.52981120963314
83.51174741731552
81.89197177415014
83.48577720769543
81.8310757035856
81.81384542270162
81.79253775148398
81.76853522611056
81.71712237344349
81.73938387785213
83.32626694780768
83.29150955335514
83.25953050333106
83.22800100624848
81.56981278116083
81.5458155964882
81.52158712098444
81.49736150267134
81.47119876021804
81.4423536628355
81.4143575772258
81.38568810511327
82.98853648287322
82.95787316815161
82.93140451021878
82.90893019301139
82.8912598094219
82.87631329502376
82.86417673218445
81.23565402166943
81.23267841372865
81.23120559442215
81.23331742640767
81.23791525666843
81.247630062716
81.2575683035422
81.27634729320793
82.90120474203322
81.2954911721928
81.32075687635482
81.34313882913807
83.03745229859499
81.398969907192
83.06870259781262
83.09807262736639
83.11958907022139
81.51270491180826
81.53857826961918
81.56295058765134
83.19699780698724
83.20732944243916
81.5801623898171
81.58158188357257
81.57894177990114
83.18462585040682
83.1662343847993
81.55355475530079
83.14229516108361
81.49458025257138
81.48073240496495
81.47280975580561
83.09404111618997
83.08525494672979
81.46474619234311
83.07927072398641
81.45267920662272
81.45931757283563
81.46534309273166
81.46663703243873
81.46576683664301
83.08781238407549
83.07174759160206
81.42798859192683
81.41077568014013
81.386230383617
82.98951641095424
82.95944099889161
82.9304249986622
82.90750863907473
82.88816280799418
81.24996573804502
81.24373224338227
81.2430409256538
81.25587904706445
82.89375136055476
82.91307808982495
82.93413928238068
82.95447059967537
81.35055756278267
81.3725185316263
81.39091870049255
83.02380053786096
81.40801807777329
81.40196643089411
81.40837857730949
83.03298618186969
81.39220616028091
81.37890914003282
81.37168875231737
82.98642124032469
82.97548404209188
81.33911101500603
81.33512705232349
82.95726911480222
82.94960813417313
81.323842063459
81.32018529585513
81.33137849961192
82.96839799097816
82.98054179270913
81.36903175991038
81.38537556746849
81.39754782398302
81.40820361525969
83.03973119175107
81.41604921753269
81.42024318880614
81.42369173482544
81.46300753058873
83.08471349319747
83.09065088028515
81.48111875440549
81.50380809491146
81.52384698731422
81.53982519148587
81.55440567970285
83.19761413811358
83.20463711467649
81.56628837069958
83.20653840967913
83.20376999969513
83.19596316071991
83.18869322369666
83.17986719667168
83.16892985619991
81.52982459760332
81.52144949783265
81.51076170904666
81.49950440241462
81.49289390861946
83.1218648140449
83.12801995215176
83.14329276062824
83.16475055886499
81.55740183481589
81.58068052588337
81.60074787975344
81.62094529700759
83.26741871016623
83.27942942683755
81.63472422565316
83.2876263382567
83.29444990727153
81.66885969382552
81.67681593106585
81.68484103582377
81.69670212967206
83.34250433831642
81.72184682715937
81.73734247930498
81.75129996922077
81.76449456601729
81.77345092778862
81.77891806357638
81.77580343677944
83.41165620510759
81.7560689093654
81.76604830706275
83.37819541282943
83.37170760982758
81.74332883610728
83.37244219742833
83.37639892771114
81.74771731304563
81.75618298652959
81.76785115080875
81.7760134078701
81.78379985552498
81.83453534525907
83.43901821616494
81.79677340088044
81.80084260671362
81.80735786874426
81.81508213348322
81.82342148876216
81.82650381846463
81.82925503719997
81.83310718200882
81.83528141982637
81.83752438478524
81.84188478704182
83.93912697177574
85.61790951121125
89.07687305546419
90.85841051657347
92.67557872690494
94.52909030144305
99.39316749885326
105.4768244951231
107.2211888568698
101.0369209965151
99.0558048985442
97.11353421425902
95.20934726888139
93.34249732243273
91.51225227689484
89.71789438911259
87.95871998932607
86.23403920522163
84.54317569139376
83.21081193553819
83.1999881130008
83.19036658750042
83.18348710077953
83.17620858933046
83.17033687493445
81.53435010905565
81.53020723205758
81.52523787262027
81.51813587152752
83.14300354673688
83.13280731418554
83.12202889151571
81.48379195254246
81.47711988515687
81.47257817624731
81.4659347212465
83.09005712923201
83.08296976826199
83.07244799078997
83.06189082454185
83.04904809150993
83.03714745473688
81.40101546586675
81.39395483788121
81.38567750951927
83.00910483429105
83.00128303035272
82.99147326373257
82.98025359766285
82.96935727025375
81.33384013477851
81.32709849347128
81.32166069925978
81.31724098144579
81.3097333204426
82.93226328677139
82.92447564667189
82.91716581561099
81.28572152159057
81.27712718552588
82.8972754805156
82.88856842930879
81.25458138838832
81.24808582719528
81.2426523340755
81.23685070580909
81.22945458964358
82.84708142638482
82.83801577329196
81.20581012493476
81.19871461023976
81.1887327665513
82.80269924884649
82.79178973183056
81.15886538422242
81.15009034976447
81.14371822112264
81.15049131338134
82.84775801422063
81.13707213904152
81.12793918650794
81.12725719073664
81.12414103409078
81.12117159837517
81.11739400392557
81.10963511427745
81.10148724377443
81.09285310931345
81.0845208851993
81.07540460033989
81.06414566875506
82.67515062684718
81.04584583241774
81.03872071624806
81.0338527314203
81.03044292808957
81.02684049847494
82.64159125233867
82.63747063961731
81.01325234672119
81.00812560290997
81.00503361928649
81.00090726884245
80.99851602677245
80.99554742160933
82.61004897047445
82.60728952523041
82.60065644555083
82.5940631807502
82.58649139428994
80.9614623590533
80.95450799755197
80.94699136095453
82.55684431085707
80.93296941300046
80.92598051372089
80.91907321877484
80.91043384470345
82.51851382248216
80.89765873757193
80.89191727852388
80.88496782054996
82.49418734186665
80.87289163365796
80.8662634099215
80.86038404414259
80.85527939134627
82.46767615634043
80.84860154248383
80.84682384499051
80.84379315887178
82.45342628031561
82.45059500070158
80.83078981078462
80.82636266082397
80.81968578381668
80.81213892429759
80.80401742322361
80.79609799888992
80.78704228526044
80.77816245036774
80.77129961222053
80.76581956438061
80.76033465644944
82.36729454844621
80.7522495573002
82.36225785283371
82.35449663001246
80.7375552732932
80.73267804691351
82.34465121450737
82.34244688649649
82.33710153477317
82.32589634522984
80.70862964032037
80.70062515690049
80.69352869905019
80.68579807809158
80.67917298017629
80.67277693240921
80.66693683049515
80.65800469501103
82.25981163399932
80.643676270847
80.6353818079151
80.62573742037289
82.22497936864055
80.60860212626621
80.59959494103033
80.59366033939949
80.58640748344975
82.18540537580687
82.1777004508948
82.1662238434599
80.54941665789805
80.54133491884015
80.53407633650984
80.52759906874222
80.52208127136086
80.51452885382106
82.11162244005573
80.49801443924024
80.48905065954283
80.48271381992321
80.47746331343778
80.47258999760523
80.4666145449097
82.06026344669608
82.05411324381102
80.43813721872201
80.43058639297939
80.42256234684778
82.01468418902334
80.40187816644716
80.38988480096414
80.38157433881784
80.37358037767012
80.36507707299062
80.3573010209642
80.34931990728751
80.34160654971676
80.33328948166398
80.32479303747019
80.31829300025075
80.31252726330774
80.30867605070189
80.30517848181775
81.8907215316097
81.88656698269244
81.87536872042888
81.86490440818169
80.25549118015772
80.24631543941163
81.82574358046735
81.81828380649878
80.20161057086609
80.18499217856441
80.17345198752774
80.16436929758827
80.15740537067397
80.15388177634324
80.15583212707391
80.15708493524387
81.73474003401853
81.73282163498729
81.72661014845639
81.72049673117021
81.71679400449207
80.10968891481291
80.09523634176799
80.08492164770433
80.07505172572988
80.06676274280095
80.06211322259036
81.63314590709916
80.0373787290781
80.06089290837745
80.06933666907045
81.658217918567
81.66248235569563
81.66868923376097
81.66704366038826
81.66805164489998
81.6683968340091
80.06983201687493
80.05204766840728
80.04519034789605
80.03458641914078
80.0226436990841
81.58306602070576
79.96994365742259
79.94261917772235
79.92040070915967
79.90715309146452
81.461768154683
79.84745221380012
79.81136087871072
79.78294233320732
79.75930490393539
79.73853176150514
79.71566683932733
79.66658174557486
79.51693091564449
79.64895042724481
79.62936686095306
79.62049860087134
79.61952427053305
79.62097465398188
79.63030909634976
79.63586128599961
79.46900048143712
79.48347245375898
81.15810954433378
81.1563495969997
79.56559380455575
79.55455112141259
79.55292887954251
79.55337586468872
79.56294426756961
81.1316508183924
79.55873159620054
79.54986485598232
79.5505370394776
81.11371842229782
81.12545557417715
81.12536100472639
79.52392313133787
79.493426881475
79.47608799853458
81.02044311487776
81.00692455706337
79.42081083580621
79.41644140226209
79.43880279699727
79.48097401793852
79.52542466949204
81.16227210182346
79.7589024253738
80.02533462432339
80.31178269511526
80.61151045052212
82.47376506106978
82.60893007806852
82.67514487803042
82.91744870004592
83.52385050119
82.56284823030903
83.25635346170534
83.75389888939439
85.62732872016015
85.07789605092751
84.19592118228658
84.11841627828649
80.85199565387013
79.26666240575503
77.71241412328924
77.71241412328924
74.46297250274722
74.51839323794668
74.56998077107889
74.60147754656904
74.62235384585669
76.09567894118881
76.1405451459735
76.17736407389123
76.21905484523514
76.26849058791741
76.37088748732363
76.56053917721768
76.81290706209606
76.84759094067616
76.89471955231288
77.09364030013221
77.35809359648523
77.66482873304918
77.91288707315518
78.26404892603934
78.6859312647052
79.24506144351399
76.1678791267916
76.84975789795557
77.89008243961051
83.9647394735982
83.79002053262592
85.46582094327843
83.79002053262592
117.8946161664985
85.46582094327843
119.1295939082564
84.39558674990369
119.8989322887733
117.2756782437845
83.88037272860548
116.5789945280044
84.13447315920963
115.6079197785767
85.48060527114428
85.14727327406045
116.9535549622022
84.98185006972224
116.1044460435674
85.18611832418524
115.7651621959527
85.35411014388879
115.6724454904825
85.42173936193534
115.4831818352549
112.8755757964841
85.43740784288725
112.4558845788818
85.45686546733621
112.0547881257113
85.4664087528806
111.6817187253356
85.46882458447422
85.47212808338466
113.646775072739
111.3547935010898
85.4549049482905
111.2925518576745
85.42047898591245
111.2335019674146
85.37605175854348
111.2021906163156
85.37775427629613
111.2083088781424
85.40076471350294
85.39880690183141
113.4292510061961
85.37835662070603
113.4481802507756
111.2857102509301
85.35017613214789
111.3099888729858
85.29102414551355
111.3526909851738
85.24577514556337
85.22444049640615
113.5950906257559
85.20536284092728
113.5952230458178
85.18468289724737
113.5787881996131
111.3899568816777
85.15987792947588
111.3890156625063
85.13617455407231
111.401431239413
86.80979480795742
86.78175879211327
113.60389788337
111.4073299963495
85.06442741566138