/*--------------------------------*- C++ -*----------------------------------*\
| =========                 |                                                 |
| \\      /  F ield         | OpenFOAM: The Open Source CFD Toolbox           |
|  \\    /   O peration     | Version:  v1912                                 |
|   \\  /    A nd           | Website:  www.openfoam.com                      |
|    \\/     M anipulation  |                                                 |
\*---------------------------------------------------------------------------*/
FoamFile
{
    version     2.0;
    format      ascii;
    class       volScalarField;
    location    "1000";
    object      rho;
}
// * * * * * * * * * * * * * * * * * * * * * * * * * * * * * * * * * * * * * //

dimensions      [1 -3 0 0 0 0 0];


internalField   nonuniform List<scalar> 
104311
(
0.5480059387009861
0.4324544245090237
0.3596304518924252
0.5252282242841538
0.4736729214186219
0.7047495867398427
0.1838237315005858
0.90293310703178
0.1788274204732401
0.1768395817935093
1.009548490062542
0.1760683233936635
0.2734844079594961
1.059763021992463
0.2710842574223532
1.08950162560909
0.1858973864461578
1.131531316212482
0.1897334273622817
1.119557199637729
0.1926336922592887
0.1953114906212145
1.136473090461594
0.1973362456049564
1.141738174090205
1.142880670053734
1.140057374645478
1.134777229543864
0.2248752148551707
0.2279615222978619
1.127993622551398
0.2306940849335525
0.2324903881929966
1.120465551579115
0.2341861931598614
1.11257774001296
0.2382760121613186
1.104855052176456
0.2412781943845028
1.097415050472055
0.2580138885935463
1.090108758364988
1.083314192507558
1.076839057265975
0.5822335331575607
0.5821322612817056
1.070392454795666
0.5793882631045291
1.063016013418473
1.056197014630335
1.050252950753058
1.045035141595047
0.6348591758435398
1.040858243670327
0.6434952728460787
1.037573369756557
0.6520154851352051
0.6599699385704595
1.033636863568038
1.02974495568827
0.6708590942134598
0.6746397133472329
1.025943825929705
0.6779874022914978
1.022123442618712
0.6805544917453692
1.018383634147882
0.6824125021082819
1.014659129008417
1.07090935805051
1.011098669515994
0.6871738517370714
1.007295632975702
0.6890503832295886
0.6907131654598536
1.003709537654513
1.000754895642971
0.9980256564312533
0.7002947810439148
0.9956537650965452
0.7029849334258272
0.993430543310496
0.705634388620239
0.9912445552719069
0.9891222660081173
0.7117532199660986
0.7147709990218852
0.9871360307727735
0.7174565550684
0.9851668949171043
0.7198368728231561
0.9829530356690602
0.7220750285801393
0.9807162159688141
0.9784388337366661
0.9762947155284118
0.9741604281155483
0.7334178143680586
0.9719497511684952
0.7357417686153753
0.7379276710234339
0.9697733517790403
0.7397963683041476
0.9677968878952103
0.7414080981338658
0.9660943288858181
0.7427663009919055
0.9646205707210748
0.7438726554413853
0.9632459662589687
0.7465115910079133
0.9620135760279693
0.7471890320270285
0.9607977146227565
0.7484480945130468
0.9596067154238026
0.7498370540611979
0.9584130750460941
0.7512507380700693
0.9572088003646014
0.7527109165235356
0.9558248296457574
0.754061078166915
0.9544162781162265
0.7570465359592728
0.9529926979895044
0.7590261755886417
0.9514321544682705
0.7606124330511056
0.9498295094757142
0.7619358545420392
0.948232986429834
0.9466843029253477
0.7649279818949449
0.7669057617468191
0.9450151083158981
0.7685488634567118
0.9435598910264171
0.7699374144260619
0.9421162733365256
0.7711295839096411
0.9407237100706302
0.7727077807422846
0.939373930084095
0.9381090380167573
0.7758286172248757
0.9368082804675297
0.7771406239213543
0.9357234617104233
0.934594861036164
0.7806435966569613
0.9334446476163264
0.7818714703313542
0.9317122205670485
0.7834788994262608
0.9315547093463323
0.9306192704035141
0.7850630194949317
0.9293820281929244
0.7862481341116849
0.9282417939123977
0.7874252680193077
0.9272948837626895
0.7883826858154894
0.7892073568006593
0.926320939862068
0.7899711735249464
0.925313760074119
0.7909167612803231
0.9243308883013988
0.9231705723403585
0.9222187878977192
0.9211640505089403
0.9200683558190395
0.7952399144329626
0.9190187139840157
0.7960967671987417
0.9180945472256732
0.79699648246495
0.91732206211916
0.7978038330673052
0.9165546550233684
0.7985567871945021
0.9160188931044276
0.799305869551803
0.9154792567580676
0.8000657555333925
0.9149593309779485
0.800695187954665
0.9144628977603654
0.9140133634670476
0.9135255280549842
0.802870845130857
0.8037340221078572
0.9130750827199031
0.9123917512118954
0.9117499672647142
0.9108850608905701
0.9100047315533304
0.8074225031343363
0.9088481833034615
0.8081625548162596
0.9079482241078562
0.8090041277388601
0.906978942550288
0.8097204554528697
0.9058541780902821
0.810392390537232
0.9047605127783425
0.8110781866373611
0.9036985504595482
0.8117005866745267
0.9026955200346928
0.8123189534130083
0.9017208500400057
0.8129577568634258
0.9008819784534112
0.8135877398114699
0.8998484819478368
0.8142420359632618
0.8991128394529341
0.8148885411972909
0.8983785669445359
0.8155234329965118
0.8975603657206919
0.8160315342385914
0.896824676373175
0.8961666979710573
0.8172545985463232
0.8957056032457708
0.8179227772872384
0.8951363538954203
0.8185355474470818
0.8947648233606245
0.7893168735190559
0.8942870743666002
0.8938305648383092
0.8200977039111732
0.8934103476756621
0.8206352870070994
0.8934009789945545
0.8931945210042417
0.8212859172122283
0.8928416523837825
0.821917919389607
0.8925743894568826
0.8225110834714265
0.891977143753476
0.8229919798128542
0.8925306760558295
0.892087762568296
0.8240666483420016
0.8912234913311409
0.8245715086517074
0.8906485155893095
0.8251708715715548
0.8896715323675577
0.8257774127990205
0.8899737572861469
0.8263632221766408
0.8890506318916711
0.8269283155127692
0.8876948967142667
0.8866293340551995
0.8856089432905361
0.8041535832118515
0.8846552665357545
0.8838385683074004
0.8291167015685621
0.8297588646426542
0.8829862748734699
0.8822098571282748
0.8304779301840814
0.8815680128386812
0.8310964555700665
0.8809770008274531
0.8806771055225691
0.8322381490777291
0.8800787474652081
0.832779067900706
0.8795187898432988
0.8333211910671843
0.8789694103518284
0.8780851923600935
0.8344316012987627
0.8771191333308248
0.8350367038543703
0.8758594693341737
0.8746487868120475
0.8356885951946504
0.8745771538525785
0.8363239067984871
0.8723572006321462
0.8368923201028606
0.8708811959617808
0.8375533636739722
0.8692193562856584
0.867382950738564
0.838196398180224
0.8654769753314254
0.8387775759978923
0.8636804231554139
0.8394597211808907
0.8618773085619559
0.8401084052274198
0.860617556549499
0.8406791352699636
0.8595734634193208
0.8413400904762878
0.8581085485301905
0.8420196121961139
0.8567667762915873
0.842651643602025
0.8554973081866026
0.8541600574562355
0.8528218474002349
0.8514507117195544
0.8500691725970371
0.8448676193269968
0.8485712641241321
0.8454530783083465
0.8469524718157864
0.8460033452343543
0.8454076236129595
0.8465078273839104
0.8437178097348266
0.8424862663702964
0.8470735389860373
0.8410862737991314
0.847582509697828
0.8398565450573314
0.8480013672797433
0.8388331474210611
0.8484922583537956
0.8380486276701463
0.8490126425366056
0.8372793340311746
0.8495786336335391
0.8366616651947656
0.8500326687309293
0.836216314539327
0.8357327512573279
0.8353943989795831
0.8352743011915654
0.8515373664998982
0.8352163124970234
0.8520882445723661
0.8352676578660305
0.8526477253804705
0.8354339113480537
0.835826335641546
0.8532125086669381
0.8356036362102436
0.853799211467446
0.8363738104059737
0.8542804737801303
0.8372794444107687
0.8547597929472015
0.8381675865954598
0.8551389791482451
0.8394556219162679
0.8411587087495487
0.9084124334417469
0.8422540986582285
0.855999622267284
0.8444026745881409
0.8563998607999531
0.8463484724407737
0.8567943861017857
0.8478366113287112
0.8490597675835349
0.8502759796360883
0.8577176697716887
0.8511206077926623
0.8580867264105677
0.8508613926890826
0.8585114843529649
0.8507684223605332
0.8588060284242013
0.8501125644453512
0.8491401513761202
0.8481296611481662
0.8594856344805891
0.846976349325275
0.8598184600635516
0.8456925840704431
0.9125795205819777
0.8602781084524478
0.9104284636226515
0.8447077359367401
0.8439537751110171
0.8437090548133644
0.8438423198430377
0.8442637768637373
0.8450742333131269
0.845789868553211
0.846489421312723
0.8625353852511095
0.8471134185728496
0.8629849105659557
0.8475559648996545
0.8634404467396661
0.8476031906825355
0.8473256343728502
0.8638897711445666
0.846674752764686
0.8641954682945919
0.8459815380345485
0.8645729583004027
0.844865140430143
0.843560098961275
0.8652149483053573
0.8422182702926446
0.8406316898228916
0.865403926781987
0.8397597209939645
0.8657377734721692
0.8388276522380139
0.8380242309922497
0.8661349633827794
0.8375143752724608
0.8665429097562949
0.8372532427203172
0.8667865406392978
0.837087571927319
0.8371902452747247
0.8376917631075143
0.8673283669058326
0.8383698462472705
0.8676629517699849
0.8391335365782752
0.8400957440088657
0.8680246604833042
0.8410165303614303
0.8683450344052548
0.8419696400799352
0.8686298643335379
0.8428952392082473
0.8438438725994458
0.8689018330841394
0.8445966764283884
0.8692440462314411
0.8452340999757989
0.8695036653131609
0.845756464499296
0.8461591507408456
0.869866907533079
0.8462327586510068
0.8702376166989707
0.8464722866876792
0.8705706460550094
0.8463730988526291
0.8459240107683721
0.8707682697600529
0.8455305304515752
0.8456419945282186
0.8712027272706281
0.8455941991743264
0.8456164376209844
0.8717766408225049
0.8455137662181218
0.8719610063959917
0.8458503819585823
0.8460227903138046
0.8721352093539475
0.8462394838684718
0.8467068126830085
0.8472754783781932
0.8480441812570303
0.8727330096231807
0.8488077598632137
0.8730826523095915
0.8494537750508887
0.8733295456213394
0.8501164519969255
0.8506482597651106
0.8735470622657068
0.8510114571915136
0.8513715141871652
0.8516086218720407
0.8738869104781926
0.8518721664505504
0.8742091845129967
0.8522095430207524
0.8745571609488524
0.8524179412984333
0.8521138284078813
0.853695597993507
0.8748636731374945
0.8552953558975651
0.875071150242166
0.8567215612717737
0.8581529890937554
0.8595202618402217
0.8607439700784164
0.8757053867869589
0.8616737181037619
0.8625674498083631
0.8760201344552347
0.8630688336311043
0.8632646792207784
0.8632038571366132
0.8629874636096238
0.8626758415537844
0.8768109410535302
0.8622955873715832
0.8771451054197399
0.8618083483100445
0.8612493535159037
0.8773767766234131
0.8605081140868027
0.8776117900321574
0.8596598009594814
0.8777241737402914
0.8588803997557519
0.8583378948230027
0.8582697051671332
0.8585816765105524
0.8592534827704067
0.8604563207427253
0.8619910354415938
0.8637250359358262
0.8654136228836465
0.8785536545503895
0.8669319818012842
0.8789459108118312
0.868288534763204
0.879236990432086
0.8694671968773807
0.8703108438169412
0.8709908067832812
0.8715438974429481
0.8719952580073034
0.8724288643153469
0.8728984488315186
0.8735516567256445
0.8742246499557128
0.874951359054585
0.8804318571693823
0.8756392711038535
0.8808960949063581
0.8762092938597585
0.8812033035663873
0.8765857993731718
0.8766674748359703
0.8815193331007174
0.8766767432068238
0.8766454221785865
0.8762357177495922
0.9030479542619645
0.8757585572365408
0.8752945122822336
0.8824425959573308
0.8752326224168185
0.9280657675621763
0.8829315353019603
0.927647201567063
0.8749740367077122
0.8833684927111647
0.8749324141788875
0.8750761458474787
0.8836657165317414
0.8753521011278107
0.8839231410012682
0.8757197037724116
0.8841486981732043
0.8761687597583937
0.8844769429855057
0.8764935735009498
0.8767775057991584
0.8846934668485779
0.8764643195892186
0.8761247658918633
0.8773095535029454
0.8781525647423022
0.8853824360251517
0.8787183100312732
0.8855838002081221
0.8794277109077518
0.8800404284748862
0.8857223148780407
0.8808625854918452
0.8855981099578666
0.9101689451924155
0.8814353935583293
0.91586974752415
0.8818724111285963
0.9166955594934361
0.882465319055749
0.8829685766922938
0.9177249212627218
0.8834884566627751
0.9183204019402368
0.9138522158021922
0.8838652271065327
0.9298376212053934
0.8844348591446179
0.9269940721390526
0.9203747533701307
0.8844750588622043
0.9333257450113411
0.8885455202380975
0.9301936826538723
0.9031671720932202
0.8849557429191574
0.7903797892706131
0.8852746525982389
0.8411347579286894
0.8414475720185283
0.8655666955461386
0.8855344589533263
0.8382230255571486
0.8684833705465378
0.8859780023277251
0.8371377414390625
0.8882112586626491
0.7383240468815567
0.8726507830879542
0.8771979975357725
0.8588034676966395
0.8816693212695353
0.8799043036676738
0.9050820205190144
0.4154948136124432
0.3119915737446388
0.2987055257887535
0.2952572405594523
0.2916728230697521
0.288106169812645
0.2853967069698604
0.2838202670663291
0.2825472730726453
0.2805278797508373
0.2771843796818894
0.273343026682993
0.2708831493398646
0.2846686771426118
0.2778011894854645
0.2952123000489352
0.7129128085587652
0.6933308938359594
0.7639739336460849
1.067610983704095
1.056064092250664
1.053719793224251
1.036535527345058
1.038376734410222
1.03474114365299
1.032991956261426
1.025804415032568
1.019355527236627
1.01801809524226
1.016714512934422
1.009960163427702
1.002748952024311
1.000401203084641
1.001570014466471
0.9937786943617946
0.9880792274644171
0.9867984965686319
0.9804138043241891
0.9751955065502712
0.971370437705449
0.9701563549902704
0.9690771493229104
0.9621022220370691
0.9610723560766754
0.9603141910472985
0.9569722609560449
0.9574637270500979
0.9555131376644471
0.9551173006345585
0.9549222447392097
0.9531436921511012
0.9483501159555016
0.9457153551895966
0.9440158897408251
0.9389096601119329
0.9376546814750321
0.9257269024066211
0.9272456356264338
0.9245138835154015
0.9231416567133336
0.9095275970488249
0.9083270385175964
0.9068197136797026
0.9056951572522414
0.9047618793388743
0.9037740233662066
0.9030289170490658
0.9021472500982788
0.9054673830305124
0.9094319707282277
0.9111506597406239
0.9123253037437429
0.9160258710532796
0.915416580612923
0.9094341720470004
0.9091572455830232
0.908922885955966
0.9076052038119166
0.9065423127374607
0.9008593397512822
0.8999780794903899
0.8988233431969389
0.898041909333981
0.8974962125228391
0.8992522377603341
0.8983544952698833
0.900008705184783
0.900860482612821
0.9038708929498945
0.9041098369915287
0.9023373404228686
0.9024235579160391
0.9019629376728814
0.9021655276859337
0.904260592750362
0.9036125602866172
0.9067248461961253
0.9091153070790395
0.9101780337087975
0.9167274126532758
0.9168533340959744
0.9166858586577556
0.9164366807530632
0.9161314291256638
0.9156848443042143
0.9151663977081133
0.9123714145176042
0.9128800296545467
0.9135450741802799
0.9146780412582874
0.9230067437859704
0.9223424343638242
0.9235659058293342
0.9262347532619885
0.929051656973248
0.9279260463791567
0.9278564225887762
0.9303958691596674
0.9129571712258348
0.8991696022396017
0.9165410270187122
0.9099537514686286
0.9095361649652843
0.9091055395298706
0.9087496415153251
0.9082350635764447
0.9076969505782035
0.9072053946528372
0.9067836224598298
0.9062595678679249
0.9057918722654735
0.9027388904018731
0.9022231925572124
0.8994252480663163
0.8993562968545433
0.8988536866971363
0.8983994913053933
0.8978396531819246
0.8972783719009082
0.8948827719800067
0.8946822138657122
0.8942354484258929
0.8937578579528787
0.8932671739378999
0.8903990243687905
0.8901826076788252
0.88973651983282
0.8879033515272141
0.8875674334373508
0.8838828895967266
0.8835643138187347
0.8810076069436993
0.8805803684129343
0.8776562447609237
0.8695645491737581
0.864753560980746
0.859861742926765
0.859284514104669
0.8584752352282164
0.8577330900725557
0.8571060970253143
0.8539059812384596
0.8503116131570476
0.84713728420379
0.8432761838480181
0.8397528263114347
0.8390177940806015
0.827545857977629
0.8266771580352981
0.8240526120764873
0.8232018004744562
0.8222785446565968
0.8214618149703247
0.8126090912159889
0.8086143681884063
0.8032335655811883
0.8023239856287403
0.7960214137632077
0.7882734678711523
0.784657103465996
0.7691077465568067
0.7679171006662537
0.766650057071781
0.7653651580888323
0.7623180026115849
0.7612700610822632
0.7523975365729814
0.7510309360858102
0.7496166084947604
0.7480040350376014
0.7464293766564116
0.7384080010578563
0.7333721586320501
0.7319477816508941
0.7305436598098507
0.7290226141583417
0.7273706408939913
0.7253705211025003
0.7141246104745393
0.7045491808577913
0.6750348218536217
0.6726487886587607
0.6582217267899703
0.6485006332433204
0.646238696009416
0.6439758808419741
0.6351957843351707
0.6332194541740619
0.6190886837796448
0.5987107853667191
0.5936013429134537
0.5879688692523236
0.5827151112825438
0.5780948989938985
0.5865654973155805
0.5949183101034503
0.5655227169981734
0.4370989540602088
0.319559654393385
0.314077593528644
0.3129877833110909
0.3074658688693384
0.3108239180665314
0.3093460517446688
0.3072684057670467
0.3045925373249778
0.3016578567118268
0.2946528783330586
0.291392634053885
0.2878878979266967
0.2841458665304281
0.2807269460196083
0.2782851247358704
0.2770728908988265
0.2755971123281237
0.2727001434878077
0.2688004611783075
0.2651350806370533
0.2634226790781095
0.2642959577147846
0.2669831795359757
0.2717766120290152
0.279506298317345
0.2922946391378197
0.3109475573774553
0.3398210353481361
0.3891745069514992
0.4740125015432508
0.5857113148106741
0.6723573963676196
0.684121750436154
0.894047585688663
0.9787919781091726
1.040373898984219
1.080760653641176
1.109036840529413
1.147806985045642
1.156398058159002
1.160937939512994
1.162056626209854
1.16093595722659
1.15832029246079
1.15464721554818
1.15029545487142
1.14553532899734
1.140578889383938
1.135479512881927
1.130390905935576
1.125226766154533
1.120066432737778
1.114704591592624
1.109501627715497
1.104674337962755
1.100282610037877
1.096184846711538
1.092468696179038
1.088740693157042
1.085091194076086
1.08146874604703
1.077868608292135
1.074275786723588
1.072359042685068
1.069051963831433
1.064360821899711
1.061327648213968
1.058523403635468
1.057390719287463
1.054946179066939
1.051535533242366
1.049468506695448
1.047479604624722
1.045568115051132
1.043816234769903
1.042003399967594
1.040134521854646
1.038264455618592
1.0362230747287
1.034237658766799
1.032335412955956
1.031292168581094
1.029717540518648
1.02826556947677
1.026983390898175
1.024954975570957
1.02465840301161
1.02362270188097
1.022592029919438
1.021537807522946
1.020477274079368
1.018518511775288
1.017266243202871
1.01605592022464
1.015412373392267
1.014095134429032
1.012718356919519
1.011326249857253
1.009750927126927
1.008481829359715
1.007252827150539
1.00611379448243
1.004916456541636
1.003903111468259
1.002467418206714
1.001465183035903
1.000564119705935
0.9980424269611099
0.9991429944448922
0.99687996805558
0.9959105325445605
0.9947537210514258
0.9946135006249188
0.9915242182429521
0.9925511168478459
0.9903216277689452
0.9891147724191373
0.989368938726413
0.9881535535958357
0.985675902355602
0.9845247559881894
0.9833679660838271
0.982265517673469
0.981166345866452
0.9819512799172302
0.9787113280941598
0.9793709002284775
0.9778733771405665
0.9772434623869826
0.9767345107567659
0.9762268640648526
0.9756155470626882
0.9765199132456253
0.974219257682483
0.9732932760965404
0.9722022818149703
0.9723113001283
0.9710657513802452
0.9699127461042767
0.9679542031318705
0.9668827590265584
0.9658340780917328
0.9647950938875721
0.9638005747878583
0.9628014275170437
0.9624754300272083
0.9614935973916604
0.9606605072732887
0.9595771552932847
0.9589726883823778
0.9583627697603914
0.9577880384846639
0.9572962858080201
0.9565643829728564
0.9565025364874933
0.9561367971168312
0.9557892586914024
0.9555149826065488
0.9544943436160894
0.9539233901456565
0.953584884550466
0.9546277025412353
0.9544145997869344
0.9539468186748813
0.9535287551528896
0.9510632157470282
0.9524871708962946
0.9519639937311472
0.9511644840068405
0.9504517347705447
0.9496918980547454
0.949058055667295
0.9453738856483831
0.9477129259411313
0.9471729000980582
0.9466505921630797
0.9462546062181661
0.9421558189466692
0.9447921129777104
0.9453399801130442
0.9401661869813163
0.9434130620468668
0.9426503973738738
0.9415187816486621
0.9356682155959853
0.9343218691584578
0.9406221772702374
0.9328665413568412
0.9362219344448554
0.9347089245632259
0.9330779029555843
0.9315556285105538
0.9286152190899124
0.930156103275332
0.9217014217255658
0.9204986704073911
0.9189397912051873
0.9174327059169796
0.9217730941996922
0.9203865487816952
0.9190210858152263
0.9176537040708223
0.9161318218978556
0.9144742555909398
0.9129563140056104
0.9112823898764484
0.902675902116593
0.9013055579461753
0.8997424327418151
0.8985176906509449
0.8975392637244245
0.896531426647967
0.8957192538514708
0.9024892847723268
0.9018665967234265
0.9014846832609393
0.9012504678547488
0.9010941847483898
0.9011655784728275
0.9013592634604889
0.9012657535012496
0.8945122226874432
0.9024327327621436
0.9032139834464363
0.9036585672453099
0.901020898323424
0.9061022792261939
0.9022646882685429
0.9041195045870879
0.9054102632443968
0.9133388407501642
0.914628118858463
0.9148641198275166
0.9091053238585989
0.9086579232286424
0.9149998772622648
0.9142656101586155
0.9133555369267172
0.905125520562038
0.9037632481164117
0.9111985600217055
0.9028810595384774
0.9088841913688886
0.9085850174374873
0.9085370599455028
0.9023527269839643
0.9025857737190853
0.9086909307032354
0.902800904972063
0.9094172164684242
0.9096048746314294
0.909525973777345
0.9091937445880905
0.9086868621037838
0.9012808073688188
0.900212939121664
0.9053231383154046
0.9039992481042173
0.9025896898170508
0.8946445751823237
0.8936951525179744
0.8925745917489833
0.8917854860009404
0.8912343962876296
0.8970856105457461
0.8969886957320939
0.8972624433788834
0.8976692614480565
0.8922355682329004
0.8930933602961022
0.8939677936124091
0.8948927424292881
0.9017430558663757
0.9026106020793001
0.9032847411142164
0.8981655785069831
0.9043663327291759
0.904161518152595
0.9044273272663558
0.8987779777710458
0.9038522210736067
0.9033630737796339
0.903021333129652
0.8971956748410541
0.8971773841218773
0.9022731969474852
0.9021988919989332
0.896814340332958
0.8969736532139901
0.9025472702230959
0.902277065433737
0.9030285903129114
0.8985377384176489
0.8992638588001811
0.9048564219521409
0.9054741974335696
0.9059611612113478
0.90637004120413
0.9019254584900217
0.9069593954876412
0.907225913281403
0.9075544845846697
0.9080996171606928
0.904363557766663
0.9055154968910667
0.9114249291549723
0.9126563478949571
0.9138214145633859
0.9148730639326288
0.9156104337356448
0.912078851423365
0.912545607670579
0.9163517880790508
0.9127719863655042
0.912674415633401
0.9124348239408423
0.9121257117996243
0.9117378778934998
0.9112004204265192
0.9146913157452055
0.9140776512700773
0.9134469261935785
0.91286661720961
0.9125647308572568
0.9081964574195019
0.9086274988517733
0.9093018912762113
0.910437521148145
0.9160026084965087
0.917461893775284
0.9188764280943468
0.9200482124248659
0.9176508959968903
0.9185253275429308
0.9212056828538939
0.919352038723151
0.9200342067091741
0.9240758206118058
0.9245532107975915
0.9250314047615158
0.9255918806935035
0.9228553609278224
0.9269103177517783
0.9276155287110995
0.928253309952389
0.9287878899078551
0.9291323275228893
0.9292975881290189
0.9293733818149188
0.9260686167309757
0.9284654281984204
0.9289603651611373
0.9246616297343339
0.9248032315206165
0.9280656043012562
0.9247930373351777
0.924992492497706
0.9282937313076813
0.9286284423049866
0.9290331461313396
0.9293651442413224
0.9297070435254995
0.930083431358097
0.9276826698423138
0.9309140500245521
0.9314093866628941
0.9319991510674412
0.9325495674619781
0.9331168891559981
0.9335596325767737
0.9339325105996812
0.9343725919101212
0.9347045940710665
0.9350449410775677
0.9353362244868141
0.9355985079820641
0.9356185467875373
0.9335553634970245
0.9337285867785183
0.9363158129944873
0.9344990753218007
0.8494361531070003
0.8844814767013182
0.9311267811756763
0.917281200463553
0.9171573636378652
0.9142259868674709
0.9126364869453708
0.9115346058583024
0.9131171774802075
0.9128443245343194
0.9126078164329641
0.9122288973258386
0.9118882856790129
0.9113454741000201
0.9108492474143598
0.9104061836936308
0.9099590389430793
0.9094356213858299
0.90899947613761
0.9053851664292357
0.9049859581699492
0.9044706346216416
0.9039731501120369
0.9064508766138994
0.9059691715984625
0.9054901328622932
0.9016999525901431
0.9011569875916393
0.90069631994591
0.9002935707845835
0.9030147552588015
0.9027474230095333
0.9021826886965379
0.9017006709355588
0.901113351982903
0.90056990412673
0.8967966975093044
0.8963106645275518
0.8957855947506402
0.8985397783543851
0.8982137827938191
0.8977732904603622
0.8972743043842017
0.8967873094033194
0.892787052294472
0.8924228344454886
0.8920083580807026
0.8916078989974827
0.8911866800807697
0.8941553386275826
0.8937463480629148
0.8932677475749886
0.8892376934760364
0.8887397774714676
0.89160135942165
0.8910709289767885
0.8869400973567533
0.8864249109008152
0.8858957366162163
0.8853079359393664
0.8847702578099401
0.8876664192911008
0.8871759808145367
0.8830177986541217
0.8825051379476043
0.881943365804805
0.8847796311746781
0.8842009350174267
0.8799831290808207
0.8794911835353565
0.8790331584610878
0.8785617128121932
0.8813364858958999
0.8772086644353222
0.8765679476187874
0.8760263486943048
0.875407125319682
0.8747312378898582
0.874193895045922
0.8735687341086978
0.8729380690619309
0.8723640780934776
0.871778271246253
0.8711295317702433
0.8705037392392667
0.8731363887998199
0.869067531289244
0.8684128862578107
0.8676445601356674
0.8668521943845109
0.8661813776151516
0.868863322858463
0.868253689450296
0.8641521982439004
0.8634683210251493
0.8628875030267286
0.8622278871388998
0.8615433560585299
0.8608944984368925
0.8633031516082567
0.8626705981652918
0.8618936674789808
0.8611818728977233
0.8604948385265618
0.8563646325537736
0.8554929591033777
0.8548102060068185
0.8573805240188428
0.8533741635708583
0.8527258525171336
0.852017268152764
0.8513476905253873
0.853620631307589
0.8495794135429301
0.8487692242167135
0.8480742255093034
0.850423320347188
0.8464768866182866
0.845735516423349
0.8449791393708663
0.8443107196523529
0.8463682818894197
0.8424958314092363
0.8416126659526434
0.8408070460160217
0.8428773452993981
0.8420578194955115
0.8381718792099825
0.8374123357595449
0.8365726697901961
0.835691898719805
0.8347970643699596
0.8339978761743988
0.8331641972588617
0.8322103949927985
0.8313085848425096
0.8304862229514788
0.8296963660512119
0.8315884216432563
0.8289204344372372
0.8308485585592607
0.8296967784347467
0.8258310248427549
0.8251148126504773
0.8270051514627624
0.8261322797899386
0.8253093493839448
0.8243761479025282
0.8205365355434174
0.8196573021709063
0.8187537985943794
0.8177761998296748
0.8168025409371159
0.815802840876432
0.8148357926394361
0.8138894577726885
0.815395289260056
0.8115445802479537
0.8106057946001164
0.8096886519625321
0.8114992830022053
0.8076861822203404
0.8068573227403387
0.8059401074604738
0.8051381852839736
0.8070837089386499
0.8062008192917698
0.8053206276190008
0.8014946335759214
0.8006216337970219
0.799714113801645
0.7987911456260114
0.7978494937333369
0.79700110682157
0.7985666905265532
0.7950836840034554
0.7941805596070589
0.793204247882321
0.7921519754598028
0.7911181591868716
0.7902228567456384
0.7917911473371078
0.7910694093677572
0.7873651444345867
0.786461538119253
0.7855524176541381
0.7872058835225713
0.7837324918568244
0.7828213442161814
0.7818894422801399
0.7809076281330894
0.7798969620366263
0.7788772114160922
0.7778303006591778
0.7767542632955465
0.7756627492894104
0.7745693320154023
0.7735001553102593
0.7723935732581503
0.7712788101101896
0.7701331027239937
0.7709555603120485
0.7700481407986692
0.7689468899024013
0.7678161531029585
0.7643387762805983
0.7633091830477666
0.764937670597917
0.7638251543754396
0.7603358231763914
0.7594703976942568
0.7586179427424419
0.7577136897618143
0.7567672595301594
0.7558091970543882
0.7547777914718358
0.7536383707408758
0.7537119192915935
0.7526789194440768
0.7515792732301901
0.7504174187924066
0.7491208714861016
0.7450433131307018
0.7438570400725306
0.7428586864396532
0.7418735229136779
0.7407767169396163
0.7397463267423442
0.7402409201307834
0.7372477143589337
0.7360116841621199
0.7348403241912986
0.7352197161247696
0.7337395889488948
0.7323850828489459
0.7309486545077052
0.7295726957816812
0.7280497090456421
0.7233420448095234
0.7215587542566929
0.7196432399614108
0.7178931382584113
0.7160768094328578
0.7164172857977897
0.7121235840638458
0.7101443334695297
0.7082182481604474
0.7064545731255777
0.7067222215357074
0.7027686209670735
0.7010034264517891
0.699345290185951
0.6978335065389392
0.6964295004405737
0.695108708508925
0.6939266444754272
0.6926597904866388
0.6913672973977134
0.6900230229192678
0.6886070335068862
0.6870244712373963
0.6852186288989917
0.6832261784360146
0.6811462811758284
0.6791221000170614
0.6770908344011699
0.6769767836405958
0.6750161595480729
0.6703541652019666
0.6680725556068183
0.6655964932890011
0.662964141011985
0.6604916416073198
0.6606910703825705
0.655786142690433
0.6532457957161355
0.6508464763331067
0.6506113873591625
0.6484148549721213
0.6463681606174367
0.6414392655836361
0.6390882897545805
0.6368679078279539
0.6378221547198927
0.6359135730858624
0.6315259767438401
0.6297620720744224
0.6275989715705946
0.6250412363025881
0.6221196623846162
0.621590850905782
0.6155012496943562
0.6116438557400121
0.6074957523800275
0.6030687462368877
0.6016049516771229
0.596562091796578
0.5912037459948962
0.5861892061172252
0.5817737192477102
0.5795269133494516
0.5873826734740358
0.5856280053720621
0.5597680690168353
0.5380543166147276
0.5273978325912486
0.4387279931508537
0.3191277324345124
0.3105647709589108
0.3086717469598361
0.3034625810172732
0.3062793836489434
0.3050107653413435
0.3030932277070431
0.3004649305190919
0.2975823134858033
0.2926300828984771
0.289489083210495
0.2861310856064244
0.2823869635517425
0.278513528094143
0.2754157047722658
0.2738677988479625
0.2664696655254823
0.2624060597192269
0.2593451498989106
0.2588730564154546