/*--------------------------------*- C++ -*----------------------------------*\
| =========                 |                                                 |
| \\      /  F ield         | OpenFOAM: The Open Source CFD Toolbox           |
|  \\    /   O peration     | Version:  v1912                                 |
|   \\  /    A nd           | Website:  www.openfoam.com                      |
|    \\/     M anipulation  |                                                 |
\*---------------------------------------------------------------------------*/
FoamFile
{
    version     2.0;
    format      ascii;
    class       volScalarField;
    location    "1000";
    object      T;
}
// * * * * * * * * * * * * * * * * * * * * * * * * * * * * * * * * * * * * * //

dimensions      [0 0 0 1 0 0 0];


internalField   nonuniform List<scalar> 
104311
(
234.7273640396568
214.5938353896459
200.6117191200435
283.5776591180739
285.092436104728
298.4352319049827
256.5895198988473
302.1180634885916
254.6552626936321
253.2315398301799
303.7521208197579
251.3684998176003
177.5412962972869
305.8689861880265
176.6422231269035
307.8621715923793
248.5511805209571
306.5366949321357
248.2504519422439
310.9770674800364
247.7897736947255
247.2842579048654
313.2361064145406
246.5748138644463
314.3128456940383
315.2793232937488
316.1058472612947
316.845517069207
243.875297184968
243.7309414113079
317.4332944948501
243.4936181387395
243.1351925946908
317.8950629805909
242.7875377697343
318.2675089105686
241.9145897963622
318.5141265413302
242.106100022466
318.6502251021871
247.3852207250593
318.6898843341406
318.709374615946
318.6542052513278
319.4691343144934
315.2051096133735
318.5888786606652
310.3083727002788
318.4428006621688
318.307096196773
318.2123705849421
318.1252466660695
296.0340108258553
318.0543653427242
293.8690028882256
318.0081517725267
291.7965054853584
289.8737962651551
317.8850095021152
317.7507842905637
288.1833828146163
287.8634185157795
317.6034567352015
287.5615056446662
317.4271543554329
287.4002339957297
317.2586163766863
287.4320836448941
317.0538634257375
300.8021212436213
316.822978491197
287.8376759747734
316.6334484968318
287.9645777090726
288.1880407136857
316.4624668301289
316.3263044177111
316.1292449964502
288.3820910234377
315.9582193909545
288.3765573454507
315.7750238840256
288.4410225969893
315.6580592693789
315.5495633634396
288.4706468598835
288.4027626772904
315.4251484693247
288.4029915297727
315.28822124612
288.4180797179451
315.1336173246797
288.5015555728963
314.9994459545609
314.8133326810288
314.6487595870927
314.4770246294781
289.0280076436849
314.3356424548086
288.9838118497291
288.9087738859786
314.2177226238562
288.8910014803376
314.1017261806107
288.8905884934121
313.9781132318841
288.9471450450701
313.8768437342342
289.0817208486726
313.723458960966
289.1912841268089
313.6019340202591
289.537301303993
313.4959026035114
289.7040784860134
313.3947053426555
289.8598166676694
313.288586627201
290.0387812132494
313.1954316450207
290.2527229501998
313.0595762568205
290.5236526067591
312.9347914554417
290.9811972945005
312.7960594278954
291.0828405781349
312.6779781383586
291.2362759599685
312.5754229592204
291.4244860203748
312.4651300498005
312.3666322069126
291.7901230836444
291.8676635105671
312.1976023832235
291.9365663176245
312.0698385135856
291.976920680871
311.9566967108918
292.0874997343348
311.847459996465
292.0779292506526
311.7331051349857
311.6407791229309
292.1009126252226
311.5065559518449
292.12203920962
311.3941383526492
311.2683066715836
292.174036614837
311.1534899297465
292.1272232767326
311.167897381026
291.9489474443669
310.7780538754147
310.7560149750884
292.1326523819823
310.7484296491458
292.1644147321551
310.6535390991345
292.221927393824
310.5781014816116
292.2912934426163
292.3623838398263
310.5029265804004
292.4654478974805
310.420412641907
292.5040692684411
310.3545589376648
310.232045862247
310.1176373508959
310.0295087347227
309.9545838270203
292.8707378115244
309.8761797580007
292.87437832206
309.7956026148635
292.872988349772
309.7437630533888
292.9080817852208
309.6276311498152
292.9593421377975
309.5606972977191
293.0194082659239
309.5010868410621
293.0965966774511
309.4417840208769
293.210368940033
309.3801013054709
309.3238704249245
309.2636742120778
293.5154304746404
293.5760572865304
309.2331736406902
309.1376042355024
309.0824925319895
309.0271890420861
308.9911580746015
293.9443933300091
308.8780977764169
293.9724745800212
308.7975677758553
294.0033542273077
308.6978243896883
294.0488047884394
308.6177774780823
294.0989903966601
308.5569885078713
294.1618660686707
308.4870753411965
294.2244029151627
308.4093771699859
294.2822483020753
308.3243567260792
294.3420183302443
308.2743578273154
294.4002867247848
308.160352953224
294.4640055976277
308.0791880456126
294.5239145755682
307.9911368130319
294.5852343563687
307.928946822557
294.6710340068063
307.8851048106696
307.8283525014647
294.8147795562769
307.8020242782416
294.8699796861055
307.7117449763558
294.9214581855647
307.6311968273784
306.2830073587089
307.5798240216574
307.5386397628894
295.1186589408073
307.4805230466287
295.1610565346267
307.3995106616545
307.4559611482614
295.1978821210986
307.4803455676972
295.238150433238
307.3466933397774
295.2861899733576
307.3998049394511
295.3533210929168
307.0759025232733
307.145485210319
295.4770105200957
307.1509830611831
295.5339568400377
307.155216046139
295.5759684138673
307.2039038546829
295.6249094458564
306.8669773265283
295.6794051400445
306.8892986339034
295.7398435360722
306.8683888632581
306.8418926874875
306.7813956327841
304.8505768209037
306.7305168272508
306.635424224982
296.0154304512861
296.0691260417626
306.5527735836797
306.4838324830691
296.1112189251058
306.4059402137617
296.1741760064307
306.3450721970469
306.2552897117347
296.2931560635225
306.1611939553845
296.360604898769
306.1137773487874
296.4179519860643
306.0220416559397
305.9183382260414
296.5162536283032
305.8265204523645
296.5792469938991
305.6964955306096
305.5002947459717
296.6204190829873
305.5659573470969
296.6660516670758
305.4471919095795
296.7133338497421
305.2372865824466
296.7686549365563
305.0811509515258
304.9301466090516
296.8193187185493
304.7488134728908
296.8766202238398
304.5510192659162
296.8978143574529
304.3253308101309
296.9797550886187
304.1617042696936
297.0257135271374
303.982151425705
297.052008129394
303.7322658724106
297.0831293152158
303.5072376527276
297.1297381064171
303.29038042079
303.1112860787485
302.9461364882008
302.774382066734
302.6004565424283
297.3387035638706
302.4123827527612
297.379451303429
302.2082364907091
297.4124024664005
302.0118459451641
297.4542333027379
301.816605890444
301.6444847718569
297.5108476473087
301.4436477830484
297.5686891371819
301.2728469338554
297.6181244795858
301.1334175150432
297.6690319061954
301.0286052200948
297.7161495668801
300.9302741636902
297.7627883128497
300.8419568557424
297.8016462022705
300.8149197867771
300.7939039849081
300.7830142278296
300.7977375730877
297.9262681230128
300.8263718369136
297.9582626507136
300.8796167257431
297.9810248442889
300.9486196640405
301.076100994043
298.0059493999876
301.0573369873393
298.04851277691
301.2050758634394
298.0916992398322
301.3796602329442
298.1383365528102
301.5358431499129
298.1903224037648
301.7156878081282
301.9527415488017
280.6169808816202
302.0398633323038
298.2858798854627
302.2775889067691
298.3402608215388
302.5026012183603
298.3857051886885
302.6710866559808
302.8530674912341
303.0577128316991
298.4822630147436
303.2377774988063
298.5418078717028
303.2556175747725
298.5875238098218
303.3122637478667
298.6339511454534
303.3346574999053
303.3260971875767
303.2878622945391
298.7270434379144
303.2244351825962
298.7772022141107
303.064811036448
281.6486936512904
298.8232731623214
281.5118694279254
302.9180972391503
302.7439381071612
302.6256973785578
302.5381129782904
302.5002895166541
302.4633124106709
302.4179456503719
302.3920240674939
299.0844271112765
302.4239185709889
299.1094859554715
302.4737297879342
299.1303860653899
302.4965693069275
302.4863739992183
299.1647467219576
302.4461278944531
299.1943487068173
302.3664024416152
299.2417287286962
302.214340435182
302.0726920578591
299.2982073523378
301.918941428535
301.719530320006
299.3720236876611
301.5425515258523
299.4085821682526
301.3363058716377
301.1461734614742
299.4438459847746
301.0084514867018
299.4893883078002
300.9004216433994
299.545074139587
300.8437557877768
300.8361481726116
300.8814482120453
299.6617656459461
300.9805043548507
299.7324305545815
301.0665458475664
301.19817756111
299.7881185795544
301.3425618779242
299.8381547859739
301.4823002737361
299.8907028039368
301.6425322245425
301.7985371774145
299.9390021730019
301.9292267998725
299.9892886814109
301.9625804870321
300.022084740669
302.0047694159637
302.024543686128
300.0569193324667
302.0030378854046
300.0944291600469
301.9577868846473
300.1137031093301
301.8516040099385
301.7355803891741
300.1948386240195
301.6564694762259
301.6024943925275
300.3232585205512
301.5176877138562
301.4775773876547
300.2876755067795
301.4489215424466
300.340985376674
301.4435406900878
301.408571681354
300.4028509363288
301.4173507830371
301.4678919756824
301.5530729182803
301.6344464608303
300.6072602352901
301.7175581379467
300.6741915988969
301.8255507666416
300.7211053707446
301.9408336125342
302.0261274076739
300.7741989892168
302.1001770074026
302.1200601059845
302.1486332221913
300.8890867181055
302.1745068903513
300.9450128216173
302.1974920950755
300.9901734956811
302.3830158851391
302.475034810232
302.4340195656106
301.0338893649099
302.4799129916115
301.0850542150675
302.6295617204481
302.8024784228036
302.9572539840234
303.0832599584385
301.2627874048541
303.1919155800814
303.2627568232784
301.3292691219875
303.2895009057664
303.2822925015333
303.2444882929585
303.1909454643269
303.129714378148
301.5328557936293
303.0705059349591
301.5917167231548
302.9961670369021
302.9372972971824
301.6296012390991
302.8724189304796
301.6756440247119
302.7954100299393
301.7303040510445
302.7230574265418
302.6964785183824
302.7036370442827
302.7566087345836
302.8522752214523
302.9944908862224
303.1700019237828
303.3537306712318
303.5157365700944
302.1256190680116
303.6801312675498
302.1856728803277
303.7975139920158
302.2389212867175
303.9002037120957
303.9696079436431
304.0210154851368
304.0803702116977
304.1412254196279
304.2041250356358
304.295845582074
304.3775819325128
304.4736980555314
304.5855180986314
302.7153999843385
304.6872599221612
302.7700170069434
304.7640074922043
302.8091786309805
304.8057300684161
304.8003544954026
302.8684541678286
304.8055739114404
304.7661098916626
304.6953245771819
296.0627017913895
304.625029709875
304.5755289135483
303.1592607770074
304.5608874981851
287.4236926584167
303.2218557432033
287.3928209781347
304.5311176873323
303.2723904764268
304.5427106767331
304.5864511416825
303.3224755155441
304.6343349349478
303.3855593901088
304.700699286087
303.4531068400236
304.7747042525162
303.5316369510165
304.8091432255846
304.8548473948296
303.6083786490376
305.0822646219702
305.2098780413648
304.978068854195
304.9332112215058
303.8979943407419
304.9652496964142
303.9790939420334
305.0149902876785
305.0712257281558
304.0709452486046
305.1307549589347
304.1783809810183
295.9195291610479
305.1459003438517
294.2684508241922
305.1585275099148
294.1590514350837
305.1846992988122
305.2007337638329
294.0291624297738
305.2208716626167
293.9361136918627
295.4163977291281
305.2576960290259
290.3537912556343
305.2931228564879
295.0428871670945
294.6634875914282
305.2808578560519
289.2615553976747
306.9336328169808
294.2079409567077
295.8148264120605
305.3369147397161
308.8417193853938
305.4030516995636
309.1164953814808
309.8490208069035
302.0444673181109
305.4104727482023
308.8755219569426
301.7628789607955
305.6758419579046
304.4272804959459
305.2695561003609
303.185990973071
304.8241920836861
307.7039741982442
310.858924237169
294.3695214135977
301.9290625585916
290.4494652911803
216.4489946027639
187.2741565589696
183.8532041981314
183.0081268756744
182.1160783534631
181.2309584691763
180.5553869438308
180.1584910854037
179.8279428239992
179.3050436684465
178.4480135651806
177.46021870923
176.8161603632282
180.2333251194561
178.5473853950694
182.7429659474168
256.1345230591263
253.4737564041946
262.3568788106928
300.5062971981716
299.3319167818378
299.0718151026404
296.7271781089441
297.0086673970097
296.4483236955076
296.1797860924291
295.0093816021518
293.761665147174
293.5301847568406
293.3140940525373
292.3899700262934
291.333761791038
291.0457488367564
291.1569866138338
290.414242597254
290.0991120946132
290.0183275511574
289.7260920497901
289.3330559766469
289.1423409471
289.0709216885305
289.0076757229546
288.4866045627123
288.4088029060901
288.3327527053627
287.8703342159126
287.9335008534211
287.4877581192938
287.3574890143313
287.2766480486547
286.8645466826474
285.9514534513576
285.3034684909557
284.9148242452662
283.8806551479399
283.6779403313325
281.8620604701338
282.0696706323284
281.6679734266887
281.4478613042521
279.7539444451166
279.673448367135
279.5105655788196
279.4198168949886
279.3457395364827
279.2615918768671
279.2166456728392
279.5399872771641
280.1526123224633
280.8107840996916
281.0581073171674
281.2481411437258
281.8185672176473
281.8072216916814
281.4310793322026
281.7636469751097
281.6842218125382
281.8653402262352
281.798683013217
281.3592843805483
281.330763823391
281.2542528110955
281.2270407634072
281.2250298088512
281.7747554590144
281.6135790036962
281.9156576974554
282.0608757445004
282.6075811922167
282.8337788010911
282.8306938445312
282.8731288846003
282.9394258104433
283.0080750010096
283.4575564097044
283.3320734240826
283.9200881338605
284.3512794879919
284.5066574635441
285.5036195486243
285.5426768644678
285.5470627217045
285.5373865045039
285.5209607169552
285.4840649369855
285.4381517562885
285.1451273638291
285.2166011460268
285.3030105099154
285.4489404739909
286.6681468761864
286.545274771934
286.770266522256
287.1518940370964
287.5242371272044
287.4148190028428
287.3949400677794
287.7695060171795
295.1678508931954
297.2982533494636
295.2567718352803
295.8919307716174
295.9227303960535
295.9298119988227
295.9453899296981
295.9482020382741
295.9456030614055
295.9414453964988
295.9494493666735
295.9512488979735
295.945566157644
296.0413290798681
296.0749575333379
296.1868313678922
296.157905798571
296.187355801336
296.2113009203178
296.2432783329172
296.2795376356614
296.496295744263
296.4753760209063
296.5202399036171
296.5518603493503
296.588877034567
296.8201479374083
296.7904076569968
296.8323611017966
296.9946143623226
296.986714077388
297.3382386963369
297.3351331611645
297.6435549157217
297.6319157725198
297.9566085168441
298.709733178491
299.2992807947009
299.8188827534872
299.8534414239471
299.9487499530578
300.0351070407781
300.109196030971
300.5039620951662
300.8449189485686
301.18587716769
301.5155161902507
301.8616834961406
301.8843399390157
302.994244693829
303.0500619250315
303.2413644329911
303.2562171270947
303.3039790930948
303.3423732749804
304.1979865694314
304.5633629086183
304.8912055276728
304.9495228289737
305.5833901635224
306.3540482365519
306.6329282656694
308.2432599452944
308.3135289923862
308.3968142930332
308.47148567416
308.5933547500288
308.6131668019747
309.3037614157076
309.4365879843803
309.5596557949872
309.6739983086453
309.7895725805739
310.2629774271704
310.5216509969084
310.6176692253634
310.7241333132337
310.8183229266588
310.9076237941009
310.9980168067103
311.4489955203011
311.5881120719536
310.6639595448196
310.5922189902925
310.31805553084
310.0991889371841
310.0903777401878
310.1002513394716
310.2756761849803
310.3123856046274
310.9939165550708
311.3557310478144
311.1061477041987
310.7410489357245
310.4369117497647
310.909877861465
313.2629232930457
290.7920323045945
260.8118586654406
237.1514243965743
189.089752170782
187.8085944301895
187.5766156792659
188.4344513465575
186.9380560866849
186.5380490499777
186.0091210300718
185.338704506627
184.6042416088527
185.2572319544914
184.4190799186703
183.5159167239103
182.5465193054828
181.652278334929
181.0038702110598
180.6606279233451
180.2481590117324
179.4793027719992
178.461670500105
177.5152573655197
177.0842178004277
177.3094685304896
177.9872009155016
179.1958219128834
181.1039063387558
184.1777550090787
188.4458465293012
194.6018548416414
204.2731049153811
219.5586559496644
237.6541521150847
249.9875122203834
249.871255637396
278.9441472121337
289.3230848195579
296.4558276303798
300.9558771244706
303.882232755706
308.2715387157893
309.1131190888621
309.5732325884262
309.6220068762067
309.4525833908617
309.1118303915492
308.6574606932155
308.1417987658141
307.5949009819546
307.0424956780342
306.4941799070585
305.9642864747799
305.4424469126853
304.9325103485019
304.4080503419961
303.9136882684858
303.4733663584988
303.0960899734771
302.768807730036
302.4934627058147
302.2194927834582
301.951017343277
301.6790987309967
301.3906855874625
301.1152799050511
300.3741810992061
300.0169006842686
300.1921081121234
299.8858358544115
299.6132390821743
298.8178226681152
298.585873609868
298.8204465977777
298.5732801947308
298.3245267315257
298.0728717478009
297.8261979987387
297.5632957186564
297.2879698924177
296.8904722505175
296.651529779695
296.413292009363
296.1767003278004
295.9198373851195
295.6725892895968
295.4446352913649
295.20903633469
295.0649928991381
294.7906239838458
294.5854743727276
294.3789356924468
294.1764832704148
293.953008287029
293.972099845394
293.7633060105873
293.5594567492611
293.1086339255409
292.9156259411812
292.7406743848649
292.5466802094699
292.4035214902354
292.199053881175
292.0098584908113
291.8121005348922
291.6536726836156
291.463015194023
291.2148320452522
291.0288935512209
290.8584733537717
290.8000558716645
290.9037831453662
290.6784743552558
290.5840524496418
290.4898942662563
290.1247001252311
290.2762026985631
290.3383206733093
290.2090023812863
290.1567178178615
289.6881678186018
289.5870592517522
289.9450061154258
289.8745369056614
289.8204010970513
289.7779764411658
289.746740916418
289.1852550518024
289.6894147494058
289.700486302293
289.6560697106428
289.6124815164533
289.5430514436549
289.44377241425
289.3715784596225
288.889909418205
289.2834470997051
289.2368720592276
289.193996709226
288.7851041616703
288.7373349285199
288.6918528137347
288.9341130383052
288.8612299473914
288.7858719921177
288.7068428257497
288.6270352941726
288.5480420490602
288.263871089383
288.1828596615431
288.1223695142284
288.2450796678054
288.1542768762838
288.0629157537496
287.9850629816372
287.8889052777187
287.8339850799779
287.7877140116171
287.7019654042103
287.6138896763798
287.5203298498361
287.697295752151
287.6326882336367
287.6072505383094
287.1968041054217
287.1317453790084
287.0412781646966
286.9427633326607
287.4089455311731
286.746186054594
286.6402580454727
286.4952127170963
286.3578458764269
286.2236385807886
286.0744347851767
286.7785658463062
285.8004500360469
285.6629521503938
285.5329817306512
285.4003068225391
286.3424397725007
285.0391099278929
285.1682305070073
286.1091451848521
284.7716103059146
284.5969731435175
284.4439542012177
285.5712822244568
285.3555666422276
284.1650675887162
285.1423926222137
283.4606185180418
283.2310170635961
282.9721798366008
282.7415283372579
282.2623297023576
282.5085994509985
283.6832986973561
283.5102345518204
283.3275608873134
283.1619819448534
281.2465533927332
281.045951171155
280.8586493212254
280.686392149351
280.5021399575637
280.3083172725536
280.1216100357874
279.9806235035718
281.7355189152808
281.6244186767306
281.4855259787104
281.3898542149215
281.321591916017
281.2450736496951
281.1941106746573
279.1933353764534
279.1570429196053
279.1602433596106
279.1807250522454
279.2107648045414
279.2714839117996
279.3373906981627
279.4015729406014
281.4315847848836
279.6311149089466
279.7732013556568
279.9187721053226
282.4710125781314
280.3269130586978
282.6714124023723
282.9414361188836
283.1354105722882
281.4289054805319
281.6127694163746
281.7239766169075
283.7392251358199
283.7093263254869
281.8167435228389
281.7635064671872
281.7192245555901
283.462268603735
283.3447594569198
281.5670878032285
283.283287615764
281.4235610140028
281.443896511598
281.4984714587779
283.4841581218118
283.5958038728265
281.5943338815925
283.7041463662097
281.855101275156
281.9268653392371
281.9594547171076
281.963247215809
281.9525272737874
283.8858489783847
283.8069872000751
281.7108204601815
281.611882914919
281.5011338738702
283.3116429291778
283.2421106182122
283.1514588040163
283.1017133412123
283.0786375328349
281.2375757266837
281.2870432558486
281.378559892908
281.4811006102852
283.3910510379731
283.526467692667
283.6613617935549
283.8013011385156
282.2082937256997
282.3592869977762
282.4830201338657
284.3092606095099
282.767020226208
282.6857160866926
282.8170183496355
284.489378008792
282.8542552208895
282.8476410491289
282.8441899354268
284.430932252739
284.4581622306491
282.8943595056267
282.9136851818647
284.5001312117823
284.5490271080088
283.1347825059369
283.0502490955985
283.2265600904248
284.8398346900056
284.9377740872783
283.5685626887494
283.6797655646752
283.7736161096164
283.8414591897232
285.3332228345017
283.9746630170165
284.0347710421779
284.1063906816962
284.1889950795108
285.6922743638743
285.8437069266386
284.6866874998508
284.8662536429212
285.0399254449511
285.1989949147553
285.3311730816522
286.7773102415695
286.8377968356129
285.4185828306187
286.8705004658096
286.8691390421545
286.845191933936
286.8167932968146
286.7755962627674
286.7148531798779
285.3925321587793
285.3244869832102
285.2478571762982
285.1834075954563
285.1367773391067
286.3235030826475
286.3711014322726
286.4494486443357
286.5910826170976
285.6259605548235
285.82635323268
286.0259918074154
286.2096681499692
287.5208477622117
287.6536754893222
286.3770194230026
287.7664666337875
287.8528891146206
286.8572772150183
286.9308215727183
286.9996741974666
287.0604208881344
288.164170204841
287.2359574723289
287.3272176703242
287.4103493386338
287.4786475891066
287.5226557020119
287.5375320286424
287.5427136223403
288.4897548236331
287.4487878231861
287.5052181095175
288.3072943486839
288.2994886418977
287.4101262923591
288.2900780863384
288.2979472776525
287.4736532367706
287.5170351203699
287.5786459373213
287.6351096306133
287.6845953448329
287.7214291612726
288.5503568096217
287.83400078623
287.896407187652
287.9700224959927
288.0392966694282
288.1127306419294
288.173978537313
288.2307311103689
288.3010373964763
288.3660133138449
288.4424365250447
288.5288765013113
288.6169826925039
288.684142555465
289.4087033660236
289.523684482722
288.9589386336239
288.9642466269993
307.7047972732864
298.1137126909704
294.5245982933961
294.4476260263249
294.4988933401137
295.421160450859
295.5686550041237
295.6900806643939
294.8883665971509
294.9034705750881
294.9389376408
294.9522380488595
294.9682608398286
294.9609296474175
294.9543469954704
294.9552243938311
294.960042236357
294.9532774742243
294.9564203454938
295.9454523792468
295.95570081167
295.9608370034774
295.9825820547843
295.011695174614
295.0085909828993
295.0208704072038
296.0919518079252
296.1047074694205
296.1123529837667
296.1335488526353
295.1180562859234
295.1289393209173
295.151252465165
295.17460921916
295.1946135817712
295.2201065204223
296.321926995031
296.3595075984915
296.3998889107144
295.3328357582894
295.3495392422536
295.3875399323451
295.411561727219
295.4422461269444
296.6240292942947
296.6608932741177
296.6914218577909
296.7089954177776
296.7285746030933
295.6317244145376
295.6475425792702
295.6896703242416
296.8566252883871
296.8861271810366
295.8208328104467
295.8450719440711
297.043106258903
297.0854355778322
297.1345701635549
297.1776822103261
297.2202203853249
296.1321108765276
296.168348971794
297.3996674459655
297.4507582794063
297.5087080576075
296.4098344932981
296.4364489723095
297.6861424903178
297.7270731800886
297.7703503004119
297.8189422193587
296.7316452118075
297.9624497943906
298.0309795904176
298.087227150526
298.1473341667843
298.2088971681399
298.2716260140368
298.3346037055999
298.3914606107007
298.4330333669713
298.4747910218227
298.5190349125876
298.569530978785
297.5216047935921
298.7131618654691
298.8082910006366
298.904659939959
299.0089528795198
299.1187208894919
298.0500226029813
298.0917331521002
299.3657760390846
299.4204167800743
299.4816399204564
299.5329883098073
299.5897472746743
299.6469546414687
298.6195861911295
298.6858836280609
298.7709266181463
298.8520582495879
298.9367611696082
300.178244607102
300.2701646711834
300.34631310104
299.2749199513188
300.5035313937119
300.5716128742667
300.6273557167651
300.6758076599691
299.656073072658
300.8850124190088
300.9796039070665
301.0301695712286
300.0104487171732
301.198596615855
301.2801629879001
301.3379201990736
301.3696925924592
300.3697722840626
301.5458114157652
301.6361499259951
301.689994742912
300.7281677487611
300.7834912044688
301.9662369256513
302.037355418377
302.1012468972241
302.1890477677437
302.2878148429328
302.3750475824599
302.4453485053285
302.5435935797801
302.6488297911055
302.719028510701
302.7600898968448
301.8537011996594
302.7685464531842
301.8684737865719
301.9782489851183
303.1134185508008
303.1210724266626
302.1553521252848
302.1929163456577
302.2519799203033
302.2993514963346
303.404019791892
303.4666726087003
303.5364827843588
303.6269638670682
303.7306776320991
303.8117385273047
303.9019395926647
303.9945657001488
303.1642623116404
304.2816470214192
304.3813186119284
304.4340341977361
303.5276267548576
304.6044780931696
304.6514770271059
304.7033694853494
304.7253012767334
303.8171601959164
303.8732016702507
303.9359094083421
305.029854686082
305.1210079949025
305.2144611813734
305.3016116874884
305.388974159233
305.4485016862416
304.5605415503819
305.6600213399124
305.7618269953888
305.8695058011587
305.9814284142623
306.088711161696
306.1503619637112
305.2828903908273
305.3682240676085
306.4318817824055
306.4960538270672
306.5293814547219
305.6389590146777
306.6943731541436
306.7800927371073
306.8617018068741
306.9507810970186
307.0469328687856
307.1513541113968
307.262973284118
307.3846870824677
307.5092900749104
307.6314648473593
307.7621058606307
307.8898532001338
308.0110631757663
308.1110097322007
307.2954787901922
307.3703965294796
307.457668510954
307.5374916211344
308.5241763508371
308.5357040366899
307.6295481954775
307.6536011395007
308.6415639252767
308.668469960367
308.7005129121169
308.7440493007088
308.808512200347
308.8967552540992
309.0094093068105
309.1384056290997
308.378094066914
308.5334119259576
308.6619064622462
308.7753318114341
308.8939636734768
309.897267350826
309.979404813266
310.042931044614
310.0866596278465
310.1313426180436
310.1916837149913
309.3370536960001
310.3182048502994
310.3766341242471
310.4441154148529
309.5963563604213
309.7025999240205
309.8244650114929
309.9272950791661
310.0245773401539
310.1223825870923
311.1083509193168
311.2152513302777
311.3015515491766
311.3594346053861
311.4025400432995
310.5691898650642
311.4944112656214
311.544418446874
311.5752309032657
311.5909579682979
310.6821483982555
311.5811455721852
311.5496822650391
311.5018125808566
311.4411718645733
311.3780519392413
311.3191379767144
311.2651509110215
311.2078932606482
311.1603026067621
311.1157088320878
311.070464348
311.0181267165336
310.9591687930013
310.9004303496866
310.8370043274201
310.76835220932
310.7018132958503
309.5275791368503
309.4545198960197
310.5428364228728
310.4945239205148
310.4642224592149
310.4165689970996
310.3414203869922
309.0274442045052
310.2477487452311
310.1675033294217
310.098411583243
308.7581901966498
308.7471002979898
308.7531110838965
310.1018398336441
310.128520961841
310.1789164946208
308.8869802113686
308.9347513755438
310.415991287246
310.5425245968163
310.6674689486984
310.7689606185845
310.8683481204195
309.4326948144989
311.1523297077677
311.3908952685007
311.5188631299809
311.4865105364545
309.6912533322087
309.384080977747
308.9031187432191
308.5726080312604
308.88437925636
312.2359539055916
315.5678307419277
322.3302165155457
323.257858140332
310.5555586366021
286.8364468227273
267.4476110670013
191.5150566235319
188.8157029243734
188.7211257135561
190.0510908228245
188.1597029147688
187.8619414965131
187.3892731797671
186.733814045991
186.0061797475452
185.8021275304383
184.9353721407148
183.9942725587389
183.0135890515054
182.0771687811954
181.3134085951616
180.916656378274
179.0607989882701
178.0056805665885
177.2137830608327
177.1157889358822
177.592680198796
178.5886001151306
180.1448947895853
182.865829653776
186.796274804628
192.2229795807228
199.2931661208519
211.1452672639901
226.8600301347907
249.8331515209467
250.7332556791067
247.9704973745294
256.4038463691752
310.192221435133
275.6658736816011
315.7204042693349
288.5438149921078
320.4651282935379
319.7419068074954
296.2189139150104
315.18924426795
300.8179783063514
310.3374580534101
306.6045167328462
308.3696866948474
305.3140361055574
309.1582845407171
300.9503931919369
309.6434360289238
299.136923485545
309.6541450412262
298.6831104616535
309.5236391551022
297.7998321639245
296.2645796394554
309.2667738904112
294.1281199040976
308.9172699109547
292.0899072357296
308.5081064608391
290.2135617003677
308.0618255362789
307.6005783020857
288.5096068543846
288.5593770451194
307.1183146407889
288.2336823671856
306.6279868507391
287.9268708066829
306.111182193446
287.7579298091788
305.5820045578586
287.7780748497021
304.9992186577452
304.4370864305334
287.4173474474905
303.9276761882517
287.5126408857261
288.1546371271735
303.4695774696116
288.2713636019924
303.0667428759419
288.4813977296894
302.6921714557446
302.2858100435707
288.2671418172232
301.8842368759964
288.2681385925763
301.4886648379032
288.1845667324463
288.6513852438819
301.1042792766833
288.6432114791457
300.7161585761882
288.7036420663479
300.2941394584344
299.9620967467604
288.3109677207554
288.7330207173948
299.6745718199408
288.6637220630312