/*--------------------------------*- C++ -*----------------------------------*\
| =========                 |                                                 |
| \\      /  F ield         | OpenFOAM: The Open Source CFD Toolbox           |
|  \\    /   O peration     | Version:  v1912                                 |
|   \\  /    A nd           | Website:  www.openfoam.com                      |
|    \\/     M anipulation  |                                                 |
\*---------------------------------------------------------------------------*/
FoamFile
{
    version     2.0;
    format      ascii;
    class       volScalarField;
    location    "1000";
    object      Ma;
}
// * * * * * * * * * * * * * * * * * * * * * * * * * * * * * * * * * * * * * //

dimensions      [0 0 0 0 0 0 0];


internalField   nonuniform List<scalar> 
7500
(
0.1174081051955298
0.117452680210349
0.1173518449769483
0.1171985722422739
0.1169844508873975
0.1167407975588975
0.1165197635855576
0.1163469920544446
0.1162393804732069
0.1161845214201985
0.1161575927241475
0.1161254975798066
0.1160540544301279
0.1159362725421953
0.1157857460674448
0.1156222548645452
0.115467559700562
0.1153384445954131
0.1152403608154114
0.1151681768103683
0.1151129503495581
0.1150619646089532
0.1149965087968176
0.1149066140514134
0.1147932514118672
0.114666656110888
0.1145392258957102
0.1144204459620129
0.1143098691458343
0.1141994802010648
0.1140745278989921
0.1139150704185504
0.1137010187408774
0.1134171841117724
0.113055405443
0.1126148372445895
0.1121024880498651
0.111532003517106
0.1109192867256567
0.1102457272959658
0.1094769403539969
0.1085953315915442
0.1075512095758258
0.1062733321517048
0.1046684685771051
0.1025662859657983
0.09973029550353771
0.09552188678387717
0.08937228067622069
0.0783287000012635
0.1175040739511909
0.117535982188046
0.1175284620166867
0.1175037586901242
0.1174449789188449
0.1173526851356966
0.1172312228921376
0.1171091726597551
0.1170185579187219
0.1169700139093394
0.1169478759238687
0.1169251840842822
0.1168639805464568
0.1167292350397831
0.1165179185635585
0.1162511305459567
0.1159713184213951
0.115724161658517
0.1155287461750335
0.1153868140746711
0.1152946598587569
0.1152331401928155
0.1151670286932047
0.1150707264201069
0.1149338182462466
0.1147674207379949
0.1145937112925826
0.1144343734017328
0.1143024483663129
0.114205408558611
0.1141253615133925
0.1140281172547561
0.1138787604696883
0.1136428154645943
0.1133022483430001
0.1128629432785224
0.1123397846410948
0.1117483104520705
0.1111033403824749
0.1104094600814507
0.1096540606482006
0.1088118377623532
0.1078414973480561
0.1066876627514171
0.1052868412924253
0.1035566748850195
0.1015300438043164
0.09925964477332072
0.09745311903109212
0.09444997272548497
0.1174710286079974
0.1175177237080065
0.1174925638931896
0.1174655394151305
0.1174200333387511
0.1173609448259269
0.1172810691620941
0.1172005725349184
0.1171398461466669
0.1171118501274558
0.1171163367823637
0.1171515110341875
0.1171713096497324
0.1171403206598419
0.1170382577277314
0.1168604333185294
0.1166193793027327
0.1163552710590396
0.1161096580411723
0.1159008131311112
0.1157305102857573
0.1155938637176083
0.1154674596778968
0.115328779738957
0.1151630758960366
0.1149690786595828
0.1147601091937207
0.114562377897256
0.1143949596110362
0.114268225387559
0.1141679249932185
0.1140633555719554
0.1139258701757918
0.1137310706403551
0.1134586318977013
0.1130944760620256
0.1126358109115617
0.1120893387861873
0.1114691398871741
0.1107905441837693
0.1100565071249518
0.1092569877552001
0.108369202793006
0.1073608685525135
0.1062026748317521
0.1048505776908754
0.1033508950100027
0.1017174262808473
0.1010139739394691
0.09941061249160912
0.1174834462132487
0.1174999544871209
0.117467036370677
0.1174242627277414
0.1173693894475821
0.1173059171511522
0.1172241163702827
0.1171399528233854
0.1170719497813175
0.1170343073864742
0.1170263432089161
0.117058212817167
0.1170928188035113
0.1170987856499774
0.1170570620628945
0.1169686460051363
0.1168306502451335
0.1166498004914657
0.1164623342889243
0.1162908552504628
0.116141839289416
0.116013239122419
0.1158822166156688
0.1157309968641815
0.1155487753652125
0.1153307611386108
0.1150880952195473
0.1148445621799267
0.1146157856705728
0.1144180344481604
0.1142501992530899
0.1140959183584301
0.1139345668386696
0.113742682195824
0.1134983976546647
0.1131838536037841
0.1127870452430627
0.112303805380769
0.1117404511135447
0.1111111633914171
0.110429932786206
0.1097018809365673
0.1089229574985241
0.1080893525561867
0.1072154131619269
0.1063197757588476
0.1055096010470835
0.1047620808015037
0.104762365184923
0.1045753229076443
0.117471781954928
0.1174982306832441
0.1174644911061759
0.117415383534388
0.1173515465935844
0.1172793757667738
0.1171874879362535
0.1170956138905068
0.1170183094014196
0.1169655998216712
0.116937551343796
0.1169447419203964
0.1169645793190054
0.1169716968068369
0.1169486375973392
0.1168860104161772
0.1167850453476891
0.1166422288647196
0.1164847826455591
0.1163364525896398
0.1162060885535825
0.1161022169793437
0.1160073278036807
0.1159071109599235
0.1157916341695317
0.1156529505298526
0.1154819284171955
0.115274651641535
0.1150443408275125
0.1148114277053813
0.1145873447596021
0.1143724194045476
0.114163676560499
0.1139495606993206
0.1137088527637303
0.1134201339042204
0.1130668162960712
0.1126393974876051
0.1121374819015552
0.1115705975144507
0.1109549082505054
0.1103062259166684
0.1096365080902896
0.1089556192628086
0.1082858985454744
0.1076518475226992
0.1071675377739416
0.1067842324544401
0.1070914726315983
0.1075324741684574
0.1174717378342225
0.1174966371370576
0.1174597962602138
0.1174126494103476
0.1173509789681683
0.1172799304515852
0.1171827751729042
0.1170831003683632
0.1169959258825503
0.116931395317459
0.1168931791127743
0.1168844392943768
0.1168926339041358
0.1168957420594818
0.1168766043887847
0.1168215030209507
0.1167358089285088
0.116611223751284
0.1164617354877377
0.1163150697733365
0.1161823281388561
0.1160755124932469
0.1159800045106926
0.1158823472155135
0.1157773060209663
0.1156581996674785
0.1155235097479528
0.1153669506037218
0.115191432881553
0.1150117831735277
0.1148387577654428
0.1146690716568068
0.1144951519573923
0.1143088196960185
0.1140975577284362
0.1138457194360971
0.1135384244681765
0.1131651496126448
0.1127227297723204
0.1122200293641231
0.1116739951080324
0.1111034351136022
0.1105295331099748
0.1099762000809421
0.1094778403494177
0.1090626403156298
0.1088259005481518
0.1087148887271291
0.1090930855184837
0.1097573501959459
0.1174695993994507
0.1174942889390042
0.1174529914205348
0.117405982702755
0.1173456608094263
0.1172799769327966
0.1171842492674669
0.1170812376153574
0.1169853832100306
0.1169080492444496
0.116860292157165
0.116838495055214
0.1168345440133713
0.1168343693869152
0.1168225193204206
0.1167817229839297
0.1167143292053767
0.1166182713082919
0.1164872401658283
0.1163479380577664
0.1162129342437932
0.1160970325041149
0.1159905950537465
0.1158809355254239
0.1157684169118515
0.1156467160511932
0.1155151500487146
0.1153712182733181
0.1152128864023056
0.115050124372938
0.1148935722549726
0.114742733804657
0.1145974081392165
0.1144559797501748
0.1143104206158819
0.1141463460964396
0.1139455023682377
0.1136925696993291
0.1133773609345238
0.1129953209116174
0.1125542677260972
0.1120765807245257
0.1115930075038126
0.1111386610777017
0.1107568006741596
0.1104774552496605
0.1103804232951501
0.1104308289773844
0.1108215171364376
0.1115217639143751
0.1174683648203451
0.1174915429487455
0.1174467740369564
0.1173989330960502
0.1173393808140566
0.1172781747001352
0.1171879218236782
0.1170880559693704
0.1169891665589169
0.1169029178000134
0.1168479545627965
0.116811053596576
0.1167922257122413
0.1167826701302674
0.1167709714784904
0.1167413345559298
0.1166885744122225
0.1166184551590959
0.1165118696086788
0.1163889481405355
0.1162624954052643
0.1161485641703382
0.1160423057851448
0.1159316945307185
0.1158183459713403
0.1156964670519628
0.1155643806469255
0.1154235757662299
0.1152713809407866
0.1151136692904986
0.1149603520905096
0.1148126852347055
0.1146708492562147
0.1145366083696009
0.1144078244745195
0.114278496484844
0.114139529649459
0.1139790734025642
0.1137842407282626
0.1135443004844328
0.113257553585488
0.1129369327396079
0.1126067171139876
0.1122991290584258
0.1120561715787951
0.1119100454887793
0.1119228923847324
0.1120880001129998
0.1124939841392687
0.1131492542934967
0.1174658515467476
0.1174889245320088
0.1174415876112028
0.117393172398535
0.1173337721410753
0.1172739369494578
0.1171864366073085
0.1170915329403241
0.1169971674035925
0.116910409398825
0.1168502741844874
0.1168019931121561
0.1167695057221717
0.1167474143857054
0.1167280829505048
0.1167006713925567
0.1166564955896079
0.1166019138514015
0.1165197960347839
0.1164162279901114
0.1163038420797919
0.1161975978481253
0.1160953653355356
0.1159883070259852
0.1158799139350665
0.1157675337263614
0.1156490396720945
0.1155262347443057
0.1153951067996526
0.1152544062754266
0.1151094168605095
0.1149638492706607
0.114820753631854
0.1146840773885206
0.1145568020737181
0.1144395156367101
0.1143277945647175
0.1142135298197074
0.1140887642447162
0.1139454099436182
0.1137783142456955
0.1135924690922551
0.1134057117451656
0.1132435321142482
0.1131412731723706
0.1131284187006547
0.1132518719766366
0.1135194523463942
0.1139743052787037
0.1146087542641454
0.1174639371312582
0.1174864726985066
0.1174373059572116
0.1173887879760487
0.1173298140817129
0.1172706417517338
0.1171837340380784
0.1170912014118292
0.1170014428203562
0.1169183778392146
0.1168580668355636
0.1168057091619433
0.1167655211525814
0.1167327603559723
0.1167024258009437
0.1166698808087792
0.1166264382405075
0.1165780938411281
0.1165161891580905
0.1164327461013533
0.1163371520963482
0.1162433745907534
0.1161479722925304
0.1160449492855231
0.1159401011483553
0.115833859079021
0.1157260469193337
0.1156190687955286
0.1155116705535745
0.1153997777213631
0.1152827485423827
0.1151594607627841
0.1150311042826878
0.1149029216100547
0.1147811020392476
0.1146707070064914
0.1145735972217943
0.1144879035761304
0.114408247550651
0.1143285207652943
0.1142443440357664
0.1141572905132867
0.1140789765062323
0.1140295665485371
0.1140373234787217
0.1141280997214408
0.1143370517942246
0.1146777080708973
0.1151773239978519
0.1158125013007495
0.117461085723885
0.1174837892032681
0.1174333745331639
0.1173850379378454
0.1173270725585887
0.1172689902541497
0.1171822614412297
0.1170903164241516
0.117002215297647
0.1169217451508424
0.1168636691403415
0.1168123863888854
0.1167706134419503
0.1167332240264427
0.1166955456010866
0.1166555101728903
0.1166073805819921
0.1165577577769361
0.1165067351367012
0.1164394412211206
0.1163619190806062
0.1162844735236522
0.1162001800422256
0.1161050351456698
0.1160055682157883
0.1159046331999005
0.115804965632005
0.1157100050124487
0.1156211136161741
0.1155341375614797
0.1154449195463584
0.1153498124521573
0.1152482134877008
0.1151429158093647
0.1150391359241023
0.1149440090287843
0.1148635451341776
0.1148006794637198
0.1147545442151408
0.1147219214317901
0.1146994646875614
0.1146875183864819
0.114693528365124
0.1147312007719524
0.1148221161006074
0.1149872095918375
0.1152532121756605
0.1156343939398484
0.1161533111798033
0.1167855815396528
0.1174584765938632
0.1174809681173412
0.1174294374366082
0.1173813368749296
0.1173248110529142
0.1172681911853984
0.11718197208647
0.1170903433926093
0.1170026926009767
0.1169230818462015
0.1168660029058479
0.1168167367430992
0.1167773283947201
0.1167402979691152
0.1167003832857634
0.1166562449842242
0.1166042590902877
0.1165502574635908
0.1165015176010314
0.1164433753364569
0.1163803012899983
0.116319366310901
0.1162488273164899
0.1161653638021864
0.1160743143128601
0.1159798480187421
0.1158874011573783
0.1158021442311563
0.1157274864623527
0.1156607459752589
0.1155966251790452
0.1155297768964437
0.115457776160861
0.1153812535407607
0.1153038824662724
0.1152320581152202
0.1151728162295316
0.115131990850172
0.1151123640760614
0.1151141012416796
0.1151365543129311
0.1151806762863732
0.115251929665314
0.1153597091766425
0.1155184274735102
0.1157434257572753
0.1160538310232647
0.1164611290270055
0.1169841972631092
0.1176034799201359
0.117455345332435
0.1174780682600004
0.1174255095843828
0.1173777084829645
0.1173229042166691
0.1172679082774627
0.1171825620706407
0.1170913132697757
0.117004029320428
0.1169246182912907
0.1168676425310893
0.1168193200856269
0.1167819473246982
0.1167473307138797
0.1167091634799563
0.1166652575580537
0.1166130570925039
0.1165568574555753
0.1165074219248231
0.1164526783579623
0.1163982788319857
0.1163501690493133
0.1162926810063676
0.1162235552549292
0.1161444559694681
0.1160594417971456
0.1159751383400049
0.1158984544565108
0.1158343749213187
0.1157819741235347
0.1157382560303158
0.1156970303257463
0.1156546038336995
0.1156094902665497
0.1155632198260594
0.1155204363163474
0.1154874242538509
0.1154705266083054
0.1154745265753553
0.1155024063575283
0.1155562765076942
0.1156389762340353
0.1157558601351051
0.1159143974202504
0.1161244870342079
0.1163965777455454
0.1167436382402407
0.1171731341180765
0.117698937544689
0.1183041440277207
0.1174520076751861
0.1174750552145755
0.1174215326231268
0.1173739673573109
0.1173209811049048
0.1172678500506556
0.1171835945020587
0.117092884770708
0.1170060169606071
0.1169269773806524
0.1168700421303263
0.1168221636044044
0.1167860591530138
0.1167533675593533
0.1167176460710255
0.116676400273393
0.1166268964265415
0.1165718235756831
0.1165232776877584
0.1164704816021063
0.1164218329125244
0.1163819648530642
0.1163340013997533
0.1162779773028121
0.116212843675611
0.1161405748054241
0.116067087435318
0.1159998099470528
0.1159451827718419
0.1159035204956317
0.1158743986974919
0.1158533304104498
0.1158366699371943
0.1158215908470943
0.1158076499480114
0.1157971507602773
0.1157944340410854
0.1158047997124358
0.1158333133287288
0.1158843458933854
0.115961964448933
0.1160709189793358
0.1162175389828929
0.1164089468007862
0.116652732052577
0.1169561612502799
0.1173280453420279
0.1177727784757746
0.1182999422506051
0.1188935813725939
0.1174484386582448
0.1174719833634497
0.1174174345619886
0.1173700636110104
0.1173191061547399
0.1172679495771
0.1171850197665288
0.1170949079854426
0.1170085038868443
0.1169299532669858
0.1168732550854965
0.1168259092588507
0.1167908321793022
0.1167597825746075
0.1167263416314137
0.1166879514385895
0.1166419776812112
0.1165898785499169
0.1165443660113697
0.116494837575022
0.1164508720453457
0.1164172229534375
0.1163762861648203
0.1163307532452176
0.1162782037360016
0.1162193113648501
0.116158888212027
0.1161035553178328
0.1160596832092586
0.1160288331703049
0.1160111111664047
0.1160049512293921
0.1160079747920071
0.1160177560960404
0.11603300145377
0.116054108967319
0.1160831842006615
0.1161233881376421
0.1161785266863505
0.1162528629304645
0.1163512990070536
0.116479649529882
0.1166455269129097
0.116856737949878
0.117119990022872
0.117440901991551
0.1178254561815764
0.1182758503069086
0.1187987270593873
0.1193799806485427
0.1174447099178103
0.1174688353988753
0.1174133278303884
0.1173660833427186
0.1173170913681462
0.1172678613824421
0.1171867127438417
0.1170973740615988
0.11701149155798
0.1169334125656807
0.1168769876510408
0.1168302948445837
0.1167962332816448
0.116766820553495
0.1167356602156343
0.1167001275072026
0.1166578535255984
0.1166095032474743
0.1165677411562629
0.1165224396514364
0.1164832476329148
0.1164553936102092
0.1164208585719353
0.1163842681981306
0.1163419790996408
0.1162948733038012
0.1162472397602761
0.1162048462427248
0.1161733431911924
0.1161546225941634
0.1161492849081023
0.1161564454288888
0.1161749094376732
0.1162035773290549
0.1162419125226511
0.1162898010937089
0.1163478345070826
0.1164172832910108
0.116500086519854
0.1165989752548343
0.1167179465792119
0.1168632205573239
0.1170431454618365
0.1172659717658363
0.1175387178973123
0.1178670362504598
0.1182548467534004
0.118702750162464
0.1192152358142186
0.119780896533764
0.1174406989559904
0.1174658000201896
0.1174093673014034
0.1173621755152472
0.1173147351436831
0.1172673524345866
0.1171885108541384
0.1171001555335216
0.1170148488217975
0.1169372463725623
0.1168810904155299
0.1168351248128197
0.1168021068712195
0.1167742442534263
0.1167453194869094
0.1167125623265694
0.116674277934607
0.1166307282683598
0.1165930423390954
0.1165518936835457
0.1165173788924154
0.1164947747965277
0.1164666437126759
0.1164385885675052
0.1164057216006261
0.1163688596427259
0.1163324502604984
0.1163022292301611
0.1162829656745685
0.1162767148112401
0.1162847455034171
0.1163058501486899
0.1163388175593668
0.116383121609107
0.1164391688583305
0.1165076305637065
0.1165890757593467
0.1166837421005061
0.1167919447568236
0.1169148339225732
0.1170548329057356
0.1172169710338207
0.1174092100112754
0.1176403003989678
0.117917612051062
0.1182462290695349
0.1186305208547606
0.1190702379433312
0.1195678639863984
0.1201144157186755
0.1174367029045765
0.1174628150249071
0.1174053749719148
0.1173582585133313
0.1173121610884856
0.1172665289741105
0.1171902736882663
0.1171030195650183
0.1170183990934699
0.1169412460286947
0.1168853040485281
0.116840188927072
0.1168082999070808
0.116781920166955
0.1167551268125621
0.1167251895299822
0.1166908162996597
0.1166524220801872
0.1166193721283409
0.1165826774758896
0.1165527648175773
0.1165346675954996
0.1165124205812506
0.116492177779619
0.1164685068869617
0.1164416645595538
0.1164159128196348
0.1163968811953937
0.1163888719441026
0.1163935708208078
0.1164143445610046
0.1164491802102969
0.1164964870011709
0.1165556125714273
0.1166270614218219
0.116712002914745
0.1168115815639782
0.1169261031765473
0.1170552831667879
0.117199206630106
0.117358706270371
0.1175372204421687
0.1177414231628871
0.1179796756220848
0.118259413871386
0.1185858274342513
0.1189628137817369
0.1193904402026918
0.1198697903802787
0.1203944066950361
0.1174325660488328
0.1174597138032414
0.1174012781379028
0.1173543386606378
0.1173094424653069
0.1172654202659258
0.1171919563289636
0.1171060252841882
0.1170219720708554
0.1169452791959942
0.116889502545819
0.1168454457492244
0.1168147234537691
0.1167898167120648
0.1167651064576898
0.1167378516582102
0.1167070356016668
0.1166737892909991
0.1166454637228001
0.1166138986949873
0.116588604520873
0.1165746493179786
0.116557850483229
0.1165442858699789
0.1165287538426118
0.1165116120252592
0.1164966762549032
0.1164887793461142
0.1164914017592415
0.1165061224149134
0.1165379226914329
0.1165847825259377
0.1166449556208811
0.1167177325135964
0.1168035220403393
0.1169032401222739
0.1170179705703119
0.1171482448589791
0.1172938238175001
0.1174543786963685
0.1176296616104354
0.1178220786986042
0.1180371696949813
0.1182820429232237
0.1185637346889811
0.1188874900128197
0.1192567662603854
0.1196715525880087
0.1201317570961848
0.1206328386072422
0.1174285129809337
0.1174565325431944
0.1173972070411417
0.1173504432378388
0.1173064411209519
0.1172639384925601
0.1171933889963706
0.1171089626570879
0.1170255513599613
0.1169492284775324
0.116893544483827
0.1168506457479271
0.1168210549074818
0.1167976904491129
0.1167751634851051
0.1167506141579764
0.1167231952197468
0.116694384512325
0.1166702490090697
0.1166443644574714
0.1166238795214722
0.1166140413780471
0.1166028348769655
0.1165952838467669
0.1165867330799033
0.1165783444897977
0.1165737238188857
0.116576838494421
0.116590090094807
0.1166150874466773
0.116656772231492
0.116713527856825
0.1167839619235944
0.1168678972906348
0.1169660281741719
0.1170791912933222
0.1172080459861698
0.1173524394979924
0.1175116521455219
0.1176851719714095
0.1178725282606186
0.1180755183272984
0.118298840870845
0.1185487612412685
0.1188317162952063
0.1191526769467337
0.1195148030362905
0.1199177834613035
0.1203601226699234
0.1208380853897268
0.1174240585661334
0.1174532192457828
0.1173932567827776
0.1173467434567896
0.1173034399904616
0.1172618183333409
0.1171945800244753
0.1171117839384167
0.117029093174021
0.1169530915997016
0.1168973991900614
0.1168556600254318
0.1168270469854368
0.1168052357872592
0.1167851189480675
0.1167635829201909
0.1167394844059214
0.1167142376242672
0.1166933562330267
0.1166733279026192
0.116657869539885
0.116652300509041
0.1166473130054927
0.1166457086253986
0.1166437068863383
0.1166430922600384
0.1166474453297184
0.1166602800972508
0.1166830167090002
0.1167176733512112
0.1167687604085047
0.1168345270802394
0.1169137495195202
0.1170067969969317
0.117114999751388
0.1172394620702895
0.1173806603381466
0.1175378918062693
0.1177096271409448
0.1178945785855109
0.1180918064370752
0.1183027586134643
0.1185314547708133
0.1187835462588087
0.1190654520318342
0.1193822306176109
0.1197368925292045
0.1201289728660057
0.1205556783904378
0.1210128622080443
0.1174196859234819
0.1174498725977449
0.1173892482368724
0.1173430273754556
0.1173004092871038
0.1172592143660948
0.1171953470066852
0.1171143612225472
0.1170325336760452
0.1169567775163935
0.1169009864240975
0.1168604251741691
0.1168324879470428
0.1168120591092255
0.1167944786897482
0.1167762347397089
0.116755657752641
0.1167337855126601
0.1167152930067184
0.116700444079245
0.1166903318909704
0.1166890755540291
0.1166901528413932
0.116694329393454
0.1166988273865143
0.1167054832036069
0.1167176727407373
0.1167386395945931
0.1167695734032185
0.1168128589281707
0.1168728696090872
0.1169474875792635
0.1170351926461676
0.1171363770852902
0.1172527293953602
0.1173857950164807
0.1175363632092917
0.11770367916636
0.11788586839197
0.1180810656635337
0.1182874873968147
0.1185055785004584
0.1187386674667927
0.1189915683857154
0.1192702069730469
0.1195804956863634
0.1199258068219638
0.1203062655454358
0.120718679026306
0.1211580592298025
0.1174150483956802
0.1174462860880737
0.1173851968658447
0.1173394568552364
0.1172973651419094
0.1172563223820352
0.1171955725693506
0.1171165185946702
0.1170357060760413
0.1169603043701872
0.1169044103273749
0.116864804701856
0.1168372069911682
0.116817894777391
0.116802697322403
0.1167876338184962
0.1167708611371345
0.1167524733889064
0.1167367391469359
0.1167264058348997
0.1167219322784005
0.1167245275284419
0.1167307268312338
0.1167404212057619
0.1167513696278392
0.1167650825071794
0.116784514181086
0.1168126447592952
0.1168507129137492
0.1169012484450729
0.1169689657722119
0.1170515071920939
0.1171471700336338
0.1172562125896188
0.1173801635504366
0.1175204623270481
0.1176781086686116
0.1178528108230739
0.1180428147304925
0.1182460286119481
0.1184601892054442
0.1186848763354731
0.1189222053003516
0.119176033755998
0.1194514641314528
0.1197538216039817
0.1200878042811173
0.1204548404676808
0.1208522417637864
0.1212750664831426
0.1174103534718745
0.1174425608175102
0.1173809851597796
0.1173357893907462
0.1172943657421145
0.1172533570202419
0.1171950976014182
0.1171178872702797
0.1170382958492303
0.1169637350703753
0.1169080104587641
0.1168688005946498
0.1168410885488146
0.1168223091035437
0.1168087985843992
0.1167964277623852
0.1167834381570954
0.1167689884163087
0.1167582035466024
0.1167515321220106
0.1167523990943361
0.1167589990640739
0.1167696816150151
0.1167840027397834
0.1168007071762317
0.1168208954583433
0.1168470240036697
0.116881803927526
0.1169265298432353
0.1169835766242126
0.1170578100628222
0.1171469357135226
0.1172494517027693
0.1173656815880952
0.1174968765179393
0.1176439537892743
0.1178076592156664
0.1179879943773174
0.1181835465906553
0.1183921913410463
0.1186115999441861
0.1188410454075844
0.1190818033676917
0.1193365305785473
0.1196093116305594
0.1199050086816643
0.1202277844465004
0.1205804563757382
0.1209615743863894
0.1213675226717413
0.1174056572654918
0.1174386019319271
0.1173763534519092
0.1173318321469377
0.1172913910631336
0.1172507879336422
0.1171939495211383
0.1171183293850019
0.1170399049557326
0.1169663960975086
0.1169122561727407
0.1168723926663018
0.1168442840878274
0.1168256710294496
0.1168133679144103
0.1168033134539416
0.1167939555474695
0.116783847389582
0.1167773126979286
0.1167744929461531
0.1167807890344305
0.1167907910164684
0.1168062552309716
0.1168250634950087
0.1168469388382411
0.1168728304494211
0.1169049742883383
0.1169459200276255
0.1169969943183974
0.1170601664129344
0.1171401174661622
0.11723469669954
0.1173427348959987
0.1174647514657982
0.1176019616666738
0.1177550145566291
0.1179243855027594
0.1181097214912021
0.1183095224005596
0.1185218615405602
0.1187443889932995
0.1189762922549727
0.1192186627716578
0.1194736063635543
0.1197443947498206
0.1200348888757157
0.1203487211170152
0.120688485491427
0.1210533797728748
0.1214417314428995
0.1174006845113165
0.1174343595214357
0.1173712128101575
0.1173273643215617
0.1172882979828229
0.1172487484109679
0.1171925705584469
0.1171185654591495
0.1170413434855757
0.1169690114615665
0.1169165468270415
0.1168753188197682
0.1168466489447663
0.1168280940253688
0.116816777430518
0.1168088091335139
0.1168028191180501
0.1167971942140046
0.1167945251981574
0.116795366746354
0.1168060219282118
0.1168189877963021
0.1168392337331479
0.1168627200096418
0.1168895663100236
0.1169207058802558
0.1169582851908758
0.1170048012262273
0.1170617128424275
0.1171304309969053
0.1172153728661708
0.1173146128807595
0.1174272445857256
0.1175539149397362
0.1176959532856421
0.117854004997924
0.118028348322575
0.1182182458894867
0.1184219043399571
0.118637223144809
0.1188616653772917
0.1190944901896109
0.1193368773485545
0.1195908743543319
0.1198591940296775
0.1201452106869468
0.1204520121799124
0.1207813426042708
0.1211318174725737
0.1215028944523736
0.117395914370328
0.11743004281287
0.1173654429712894
0.1173220774816808
0.1172846981605147
0.1172469643500209
0.1171910676239492
0.1171186852336626
0.1170428112152962
0.1169714364202953
0.1169198423928464
0.1168773844827188
0.1168480563000591
0.1168295060042622
0.1168190879001265
0.1168131906210319
0.1168103991057645
0.1168089452185318
0.1168094785092506
0.1168144311229985
0.1168287230747395
0.1168442318571302
0.1168686880206506
0.1168967458269507
0.1169284368966276
0.1169645534684296
0.117007178990135
0.1170586552283179
0.1171206102304909
0.117194117310278
0.1172832636599507
0.1173865882267664
0.1175033757082738
0.1176342216608533
0.1177804272018091
0.1179425835537111
0.1181207296326581
0.1183140026200241
0.1185206072252198
0.1187382168693389
0.1189641357450704
0.1191976373595465
0.1194396906441456
0.1196922391633255
0.1199574774661854
0.1202386836978046
0.120538810908962
0.1208587973813458
0.1211964955553795
0.1215515416903722
0.1173907885221103
0.1174256551927027
0.1173595785395985
0.1173163619475227
0.1172803279629243
0.1172450435882841
0.117189440871206
0.1171189572469596
0.1170444414147812
0.1169736068989196
0.1169220733686157
0.1168784972145199
0.1168483571204006
0.1168297233549783
0.1168202420012334
0.1168164120919828
0.1168165822799385
0.1168191086595099
0.1168226788776688
0.1168314787860482
0.1168490299443175
0.1168669868459046
0.11689515307868
0.1169275383751942
0.1169638160059958
0.1170045864819981
0.1170518599894701
0.1171077222199955
0.117173793541689
0.1172513171653864
0.1173439691803492
0.11745085843193
0.1175714399560187
0.1177061045757532
0.1178559142761055
0.1180212815491562
0.1182019685834042
0.1183971059433023
0.1186053041512143
0.1188243248861355
0.1190516141359655
0.1192863067874171
0.1195287553775954
0.1197804672291176
0.1200430360300671
0.120319259565179
0.1206119064281558
0.1209218140090946
0.1212467691511712
0.1215864935431469
0.1173865074321148
0.1174214879618976
0.1173535552658946
0.1173104059901378
0.1172755154149306
0.1172429663958784
0.1171878896270157
0.1171195390517378
0.1170463509391606
0.1169756039177251
0.1169232269482644
0.1168784257526423
0.1168473018148742
0.1168285098894784
0.1168201695907489
0.1168185073327815
0.1168215862159847
0.1168275181388851
0.116833738561851
0.1168461743524737
0.1168666561625992
0.1168872136900478
0.1169187834546049
0.1169552029276975
0.1169957263577109
0.1170406851295485
0.1170920440861951
0.117151662649288
0.1172212128469154
0.1173022412343998
0.1173980713603209
0.1175082133239649
0.1176322037737644
0.1177701537707629
0.1179227176982852
0.1180901994305103
0.1182723047267027
0.1184682631558262
0.1186771265880465
0.1188971031542845
0.1191259314241739
0.1193623392049008
0.1196060102149947
0.1198575150589682
0.1201180708678933
0.1203895087616158
0.1206738241264094
0.1209724163078219
0.1212837492143767
0.1216081073319908
0.1173808156772341
0.117417269709794
0.1173480766400828
0.1173047153718392
0.1172708586340762
0.1172405048694832
0.1171863545797723
0.1171202574859019
0.117048222661405
0.1169770062038087
0.1169231491063316
0.1168769903305565
0.1168446700006063
0.1168256015054765
0.1168184448763538
0.1168189616115357
0.1168247847440858
0.1168339137471914
0.1168426730400347
0.1168583380283164
0.1168813835405458
0.1169049245465291
0.116939686359809
0.1169798268128283
0.1170241133964273
0.1170726704683606
0.1171275480012681
0.1171904290418462
0.1172631981821109
0.1173473933348472
0.1174464114350832
0.1175596524444637
0.1176865013286007
0.11782680262324
0.1179809241606835
0.118149286039977
0.1183318733772076
0.1185282955609525
0.1187378555921313
0.1189589428435179
0.1191897074670829
0.1194284110092954
0.1196736650077463
0.1199250115521158
0.1201830498390501
0.1204491570756236
0.1207249292123548
0.1210119287797983
0.1213094079583582
0.1216185456805842
0.1173768582208011
0.1174135815989991
0.1173423212963222
0.1172986432895719
0.1172657401393157
0.117237358176803
0.1171846969841461
0.1171207691071063
0.1170496298684716
0.1169775774986682
0.1169218749351561
0.1168743821900199
0.1168405220207968
0.1168210116713871
0.1168149031137274
0.1168175346460106
0.1168260122239976
0.116838171100048
0.1168494484457067
0.1168680621732955
0.1168934828194907
0.116920239969557
0.1169579267854741
0.1170013040909662
0.1170487741050367
0.1171003808977898
0.1171583114991233
0.1172243945313949
0.1173005398357849
0.1173877730516012
0.1174899092281693
0.1176057134553013
0.1177344507897147
0.1178758926497339
0.1180303840253503
0.1181986207025826
0.1183811206081848
0.1185781320630098
0.1187891447627159
0.1190125667311375
0.1192460536882686