/*--------------------------------*- C++ -*----------------------------------*\
| =========                 |                                                 |
| \\      /  F ield         | OpenFOAM: The Open Source CFD Toolbox           |
|  \\    /   O peration     | Version:  v1912                                 |
|   \\  /    A nd           | Website:  www.openfoam.com                      |
|    \\/     M anipulation  |                                                 |
\*---------------------------------------------------------------------------*/
FoamFile
{
    version     2.0;
    format      ascii;
    class       volScalarField;
    location    "1000";
    object      p;
}
// * * * * * * * * * * * * * * * * * * * * * * * * * * * * * * * * * * * * * //

dimensions      [1 -1 -2 0 0 0 0];


internalField   nonuniform List<scalar> 
7500
(
80783.24211565865
80779.05722487686
80778.13952820307
80775.87449001439
80773.43344817587
80771.13969191586
80769.13328778968
80766.42563717203
80764.50111131792
80762.20602569202
80759.2052296293
80755.35359103925
80750.67982578576
80745.92312336703
80741.00262011321
80736.07944039584
80730.80649603007
80725.57795499923
80720.47280164267
80715.35741286582
80710.40309996721
80705.09510231001
80699.492126647
80693.60871184288
80687.59252002519
80681.58039864858
80675.57165583293
80669.83078654222
80664.34922640641
80659.06966335382
80653.86688856079
80648.71133331895
80643.54765291723
80638.5423962756
80633.81514561211
80629.56193314673
80625.88081808935
80623.28528128251
80622.14451761622
80622.26098266769
80623.66166497041
80626.89302582789
80632.30239973484
80640.49475600712
80652.47402530914
80669.46876636361
80693.76812163234
80725.75385325013
80768.46163729957
80682.96648523561
80778.7110854919
80775.55340938356
80774.08699499423
80772.93508601202
80771.81018550594
80769.94410408789
80767.45413043458
80765.23902894065
80763.02243624612
80760.60169711325
80757.60331184024
80754.00207663527
80750.20042317762
80745.60703099002
80740.99652498093
80736.27467303933
80731.3076052704
80726.36980941839
80721.44871877973
80716.40098017627
80711.2793828711
80706.16844642657
80700.74616684178
80695.2137620904
80689.59394636218
80683.98967857404
80678.41928812237
80672.82879967341
80667.31082312239
80662.13239461766
80656.93904288366
80651.76158860746
80646.80840999179
80642.05088387542
80637.7802602372
80634.06330293693
80631.06577232546
80628.83002182805
80627.33153568466
80627.11213573613
80628.27274246409
80630.86801654575
80635.3236903022
80642.0444377106
80651.52994261918
80664.07171403059
80680.53492602565
80694.65645178576
80722.64898691641
80662.63394637569
80780.03812184004
80776.5038601158
80776.1207166285
80774.56824119676
80772.57603999707
80770.62764438082
80768.69168342126
80766.56567482614
80764.19303577377
80761.56879851369
80758.55233331083
80755.30795178482
80751.13814777251
80746.55829915917
80742.55194012843
80738.01292710616
80732.93338048403
80727.84493108363
80722.71445131674
80717.59056537384
80712.34189384799
80707.3133152489
80701.78551876172
80696.09881854161
80690.25860055872
80684.39562516412
80678.66480513361
80672.97113198516
80667.36589956521
80662.06614279932
80656.94370923139
80651.83497071039
80646.85313562071
80642.06920905884
80637.46136336506
80633.22239794819
80629.53904018579
80626.57703863601
80624.56520049564
80623.7101562215
80624.11327902811
80625.89392324181
80629.30217814492
80634.50592518986
80641.71428031682
80650.71735229425
80662.15323141636
80666.19659983258
80693.74268842049
80640.97876965548
80780.01353587843
80776.95523084121
80776.53050742
80775.02736372802
80773.10454400736
80771.28998019408
80769.4143361124
80767.27140454706
80764.92208311144
80762.49016817613
80759.80471308679
80756.57557406342
80752.50989017297
80748.03226353999
80743.23900373337
80738.70221452534
80733.99034553954
80729.21860351355
80724.46772670973
80719.42992824226
80714.18312459168
80709.22910020946
80703.74365894924
80698.0938742076
80692.18473791999
80686.07097440721
80680.03546538757
80674.36615219794
80668.76527269988
80663.40993926013
80658.36534203407
80653.28563705916
80648.22643285203
80643.25365904911
80638.42542769425
80633.89270037366
80629.832044476
80626.46712606537
80623.98383799095
80622.40361490993
80621.82524757637
80622.28628334156
80623.84048674244
80626.46649588359
80630.23288472436
80634.18163378345
80639.50768403376
80635.52346363779
80645.65724761368
80611.25355104855
80780.93906015647
80777.77974015835
80777.46690036793
80776.02340982172
80774.07070800757
80772.32102805778
80770.53604360101
80768.57748795816
80766.21774314223
80763.71165294071
80761.04319898777
80757.75696117815
80753.79323739363
80749.58242634287
80745.03368671126
80739.90524384368
80735.08131328788
80730.04319105341
80725.28241050654
80720.24357729821
80714.96851498814
80710.09091533444
80704.7268806433
80699.30585371917
80693.629964904
80687.77751380499
80681.88330722445
80675.99071197094
80670.21674334146
80664.49762151178
80658.87696212322
80653.33705478981
80648.15321104426
80643.08234469731
80638.10007708482
80633.30046772218
80628.8307923658
80624.89779669188
80621.68078736018
80619.2338242503
80617.58991876867
80616.73843343202
80616.66371294383
80617.20581927839
80618.16478314792
80618.45581996352
80619.72808005751
80612.3005389376
80616.0496623677
80587.65029929549
80781.9114041064
80778.78970780181
80778.52013536348
80777.05656876476
80775.05461735895
80773.28803320049
80771.5786753642
80769.69621323468
80767.42573054871
80764.97957072375
80762.25458821793
80759.08461038936
80755.27075096001
80751.10413547241
80746.52221443337
80741.3647170561
80736.65560591483
80731.53322628282
80726.70278349545
80721.77560798118
80716.47975872073
80711.42744627953
80706.09779227256
80700.56395259549
80694.8005749005
80688.53735622794
80682.56932539778
80676.59186659867
80670.83431672803
80665.2383576001
80659.71815384321
80654.3115649407
80648.97301720431
80643.66653626536
80638.36093011715
80633.13999639587
80628.12213790083
80623.48435146526
80619.35043887942
80615.87846883119
80613.05113439971
80610.79126073135
80608.97851578114
80607.34491975469
80605.69822030928
80602.88739537013
80600.46187475772
80591.08887000487
80587.59112078779
80564.62943094822
80783.12901738538
80779.99763611532
80779.8683569546
80778.39091710174
80776.26301748487
80774.46652931802
80772.79032467955
80770.98855104574
80768.7931660797
80766.2455501113
80763.50319916672
80760.38083487876
80756.67667576199
80752.5520481077
80748.08128799962
80743.04478926945
80737.96232401615
80733.04235191464
80728.14183870589
80723.21887477313
80717.86267054651
80712.70658929294
80707.37282037995
80701.81748430623
80696.08775003064
80689.89464498163
80683.69375109626
80677.6731169394
80671.66944493094
80665.81002577991
80659.99290378214
80654.27633516859
80648.69407911843
80643.19339631905
80637.73476953978
80632.36880116664
80627.06269946393
80621.99893622493
80617.26458254203
80612.87846201954
80608.85492318759
80605.15361151675
80601.66468622144
80598.10435638571
80594.31893668837
80589.14683217947
80583.95123059259
80573.50989562948
80565.2676099012
80545.16608981993
80784.55013078138
80781.39622272228
80781.30858608124
80779.82455682124
80777.70441356539
80775.79508827152
80774.14804451419
80772.31866120359
80770.15383964557
80767.54117242574
80764.99093704512
80761.85391510554
80758.22515233814
80754.08745991345
80749.62608193934
80744.76083246495
80739.50393177966
80734.62927895696
80729.64945095392
80724.80887841566
80719.39483094105
80714.09337655906
80708.65412155059
80703.04584663638
80697.24973083279
80691.07976979774
80684.73865131827
80678.66767032028
80672.5396560584
80666.52827621816
80660.55845549976
80654.62593709069
80648.78262298624
80642.93821624052
80637.01282071315
80631.03797022991
80625.2031247143
80619.50297457489
80614.10171970987
80608.91272573941
80603.90883776348
80599.05994247792
80594.22435055525
80589.09434320719
80583.52544149791
80576.55875476036
80569.04750448847
80557.88904027425
80546.73910765289
80528.01030352297
80786.13927461719
80782.93287606142
80782.9009746774
80781.40279447961
80779.29236927054
80777.27397017737
80775.63308972084
80773.80159466359
80771.65652829348
80768.91898780139
80766.68186611476
80763.52778519731
80759.87221324627
80755.74755663416
80751.22978296636
80746.40361813136
80741.0497984219
80736.30297175185
80731.19735582347
80726.30485474569
80720.93189635708
80715.58681384678
80710.05863975787
80704.37992890136
80698.48881975484
80692.27754257109
80685.8586900941
80679.60021277318
80673.37445453563
80667.11658795651
80660.86095751372
80654.68310149199
80648.56312797495
80642.41368113269
80636.16738979142
80629.8657349182
80623.50890001208
80617.14368104665
80610.95785500188
80604.9678915972
80599.01415826914
80593.07104148145
80587.00598551422
80580.52885802508
80573.49743384364
80565.19055278826
80556.00643347969
80544.22000571896
80531.53164587238
80513.36340560678
80787.86338997255
80784.60456524562
80784.61861095723
80783.10498595958
80781.00819238993
80778.88543635394
80777.24064347656
80775.40227573429
80773.24980758701
80770.47164241625
80768.30031551782
80765.22946864323
80761.56486889768
80757.42904608684
80752.87353938074
80748.05613878087
80742.83827704751
80737.75915597616
80732.84437171611
80727.87675577929
80722.48968881664
80717.14206723798
80711.47371063562
80705.73061884474
80699.75411990981
80693.46194274955
80686.9665379643
80680.50340721074
80674.18262294726
80667.74672120847
80661.31057644951
80654.86575122159
80648.4084016884
80641.88210672518
80635.24906296498
80628.496649055
80621.65011422041
80614.77287160797
80607.93578311836
80601.17159192357
80594.37675979004
80587.47855920585
80580.36390706016
80572.77714074634
80564.56814589049
80555.23102581166
80544.87696052266
80532.54733994119
80519.10268643066
80501.31504335171
80789.71709233613
80786.37893242894
80786.41499248367
80784.8973289125
80782.80552947574
80780.62563725948
80778.94963735247
80777.10887847625
80774.95224763751
80772.15280145194
80770.05046066589
80766.97767044345
80763.29916609779
80759.16626365558
80754.58701711858
80749.75964236427
80744.57926387951
80739.36217702623
80734.43891178088
80729.48153672596
80724.05124035079
80718.69396155457
80712.92136849696
80707.11510954806
80701.04925573197
80694.6482876784
80688.0618926719
80681.45256501992
80674.95698002212
80668.35265500599
80661.69014402866
80655.01016421817
80648.28228525497
80641.42989569198
80634.40117241174
80627.21350500242
80619.89964308575
80612.49839747972
80605.08574784773
80597.64384892202
80590.10638539876
80582.39065126136
80574.39115631097
80565.8951563805
80556.75347541599
80546.62373220929
80535.47499168804
80522.73725176156
80508.93702330996
80491.51917983752
80791.6944188648
80788.27312693546
80788.33085353675
80786.79715306657
80784.66014218026
80782.48357032158
80780.74741414725
80778.9050708599
80776.7484090714
80773.94479971696
80771.85686082621
80768.79968070012
80765.13460221927
80760.97459102845
80756.36330777366
80751.52527819577
80746.37672985953
80741.02461342466
80736.08847299489
80731.11387198642
80725.64179278376
80720.2087389224
80714.41057944951
80708.52391947614
80702.35846332344
80695.83813822424
80689.14401244513
80682.40594393166
80675.72795384239
80668.95832677813
80662.09616906843
80655.18654303194
80648.17522790677
80640.99526992431
80633.6100493681
80626.0263489057
80618.26255501484
80610.38531743918
80602.43758250333
80594.39392514522
80586.20315843275
80577.79216836863
80569.05624351346
80559.81880750578
80549.93979958382
80539.18886964953
80527.48754902989
80514.46242568277
80500.50365449616
80483.5004651538
80793.77615230627
80790.25264360507
80790.33596478331
80788.80000394696
80786.62684141826
80784.45341567026
80782.64023269224
80780.80088037827
80778.64570688657
80775.85457468465
80773.74197328958
80770.71612729413
80767.05809122932
80762.88393265277
80758.23571680172
80753.34834508758
80748.17488978132
80742.77065743825
80737.795449654
80732.78486513806
80727.25746902727
80721.73700363528
80715.93780888767
80709.96570337251
80703.69502696609
80697.05142641018
80690.24018947822
80683.36925808419
80676.52309641957
80669.57592495905
80662.52237397237
80655.39095249557
80648.11295557809
80640.6254677567
80632.89851534589
80624.93991619581
80616.76732263247
80608.45544779932
80600.02970793351
80591.46498691999
80582.71667630458
80573.72522149519
80564.38821640935
80554.55619779529
80544.10251406558
80532.8672442408
80520.77116643952
80507.5495384643
80493.52765851041
80476.9577123208
80795.95057176106
80792.30815544925
80792.42044079457
80790.87410514428
80788.66065140659
80786.50447860316
80784.621921881
80782.7802715499
80780.62499956094
80777.84414448199
80775.71402001414
80772.70808984965
80769.05908878312
80764.87062714928
80760.19063756631
80755.26425626595
80750.05479934755
80744.58676628728
80739.56486455516
80734.50693676974
80728.9139216625
80723.30290002769
80717.50913160889
80711.45021697661
80705.07534101832
80698.3089269281
80691.37711163881
80684.36745465739
80677.35886423655
80670.23081467477
80662.98996601792
80655.64102122717
80648.10699632869
80640.33124118143
80632.28841821016
80623.9858962476
80615.44617100133
80606.74292844346
80597.89366678859
80588.87561668367
80579.65221750269
80570.17863617075
80560.35737040342
80550.05960630529
80539.17346937052
80527.58176943244
80515.2187043759
80501.88706652744
80487.86881068494
80471.71880424094
80798.21368116944
80794.43627587537
80794.57872662164
80793.01210897726
80790.77213720618
80788.64941081509
80786.70557306884
80784.84876374951
80782.68776001151
80779.91671158579
80777.77174828202
80774.77524383647
80771.13740277503
80766.93753164487
80762.2269679287
80757.25973522483
80752.01420463063
80746.479134408
80741.39221105918
80736.27858833634
80730.61616524975
80724.91616543914
80719.12075288023
80712.97908514211
80706.50125663439
80699.62409330848
80692.57340461513
80685.42522687296
80678.25487901867
80670.94946047499
80663.52370927102
80655.96218769554
80648.18469308189
80640.13929439669
80631.80416501487
80623.18728622625
80614.32544004268
80605.27564627898
80596.0548040454
80586.64601658516
80577.01743094179
80567.14421817618
80556.93338264064
80546.27233970555
80535.06456940678
80523.22090606473
80510.69084956261
80497.32445456334
80483.36820757709
80467.61940492295
80800.55390569006
80796.63158499807
80796.79913858043
80795.21425424679
80792.95038276819
80790.86240680955
80788.87021479306
80786.99568071873
80784.82493789271
80782.05889673137
80779.90166155128
80776.90750425117
80773.28678045943
80769.07819761915
80764.34104802126
80759.34350178702
80754.0688488444
80748.4483437029
80743.29461290428
80738.11407392105
80732.38414376615
80726.59388157947
80720.77956053393
80714.5582287323
80707.97567072962
80701.00437986862
80693.84061173565
80686.55833393114
80679.22592261042
80671.75118940623
80664.14545756625
80656.37749575591
80648.36943702295
80640.07358857812
80631.47050709496
80622.56738813035
80613.42263113054
80604.06852433417
80594.5248733309
80584.78172393367
80574.80729221726
80564.60500186437
80554.08323371198
80543.14181491408
80531.69821552589
80519.68280289437
80507.05815840913
80493.7106854008
80479.85864178342
80464.49457230464
80802.9691345457
80798.89247084029
80799.07516088399
80797.47717984552
80795.21789804853
80793.11512922152
80791.11024191261
80789.21746040742
80787.03143586857
80784.26237925804
80782.08814940359
80779.09409687146
80775.49512782079
80771.28053979119
80766.52118876904
80761.50734210589
80756.24019213121
80750.74014473325
80745.34816197153
80740.0585453293
80734.24970773129
80728.3648904224
80722.50592420055
80716.20015252137
80709.51591465961
80702.45616271668
80695.18655347948
80687.77743473554
80680.28417065485
80672.64902498221
80664.87096015966
80656.90526697112
80648.6808195968
80640.15413913589
80631.30749460429
80622.14906280411
80612.7532113357
80603.13398852844
80593.31173387135
80583.28447731724
80573.0151522979
80562.54303813262
80551.77466563947
80540.61998452804
80529.00785200353
80516.88250652194
80504.21616273849
80490.9234326186
80477.2007993842
80462.20481743487
80805.44878395445
80801.21357025346
80801.40043207209
80799.78134710125
80797.53975841834
80795.4238289698
80793.41659275205
80791.50797784784
80789.30780245461
80786.52812320989
80784.34045316358
80781.34011877349
80777.76257520345
80773.53909143258
80768.75467634322
80763.71217326524
80758.43509381327
80752.90792566705
80747.516186408
80742.09278360213
80736.2116553032
80730.22758419256
80724.30501386072
80717.90960380314
80711.12898799738
80703.98672930316
80696.61877602848
80689.09178142628
80681.44204726923
80673.65474615515
80665.71251808552
80657.5589958901
80649.13261392113
80640.39434237653
80631.32821489623
80621.94250302861
80612.32568890537
80602.47608043175
80592.41402953271
80582.14522692273
80571.62988167336
80560.93253331483
80549.96854831341
80538.65402623401
80526.92725928013
80514.74196702665
80502.07637879066
80488.86599472881
80475.2883725303
80460.64162674586
80807.97821725781
80803.57995841354
80803.77264297233
80802.13228870914
80799.9237155741
80797.78826675843
80795.77946202696
80793.86089237673
80791.65081765634
80788.85160701355
80786.64189518921
80783.63121153992
80780.07449113323
80775.84469410291
80771.04005376318
80765.97246872968
80760.66517914522
80755.06988863983
80749.74953523195
80744.22081935609
80738.27373768513
80732.20207717175
80726.19672770797
80719.71043676451
80712.83211429125
80705.60800359603
80698.14550058027
80690.50740606697
80682.70837881457
80674.77750131961
80666.67925158638
80658.34877159905
80649.7349692579
80640.80370469463
80631.54121484242
80621.95459972773
80612.14517210118
80602.09706755944
80591.83018089719
80581.35662933016
80570.65105685111
80559.75667432277
80548.63800140974
80537.20545324207
80525.40489419283
80513.19707750551
80500.56378457267
80487.45547201093
80474.03098462622
80459.71207418325
80810.54593831026
80805.98249909352
80806.17632566117
80804.52167943756
80802.35406320138
80800.19743388926
80798.18379324229
80796.266301357
80794.06128335166
80791.24608512112
80789.00366262025
80785.97107074391
80782.43336465841
80778.20194583091
80773.38526785755
80768.30498701954
80762.95013740598
80757.33605533942
80752.00048006789
80746.40687608588
80740.40460899392
80734.2488766904
80728.16519067131
80721.59445600014
80714.62357577165
80707.32044596999
80699.76918294826
80692.02655475131
80684.08763858462
80676.02507283619
80667.7800262228
80659.28502970784
80650.49851157515
80641.39161310137
80631.95360427695
80622.18985915316
80612.2126936131
80601.99386038046
80591.5528165365
80580.90943131917
80570.04596513597
80558.99066737352
80547.74712131194
80536.22716778632
80524.38219144373
80512.17863863071
80499.60069311853
80486.60964475456
80473.34477425637
80459.33497691859
80813.15882954279
80808.41802744899
80808.61192444187
80806.94100140419
80804.7951353239
80802.75224581778
80800.65419752471
80798.728696734
80796.53707999701
80793.71601754238
80791.40910029445
80788.35588582237
80784.82804372111
80780.59425460712
80775.77079968818
80770.67517632271
80765.28988661499
80759.64394377649
80754.29468646293
80748.63977700635
80742.60244625958
80736.38856825576
80730.21544060667
80723.56844028248
80716.50937108902
80709.13324099795
80701.4986024621
80693.65743512775
80685.58885676498
80677.40671278525
80669.02316150101
80660.37470384249
80651.4281412064
80642.16042072534
80632.56440713865
80622.64372138509
80612.5196165075
80602.15400055714
80591.56697537779
80580.78287340283
80569.79097731206
80558.60569183397
80547.26548419194
80535.68235917366
80523.81525324202
80511.63521238432
80499.12830329132
80486.26394522451
80473.16169446446
80459.44134378071
80815.79483087668
80810.87669640829
80811.06955758158
80809.3768353253
80807.24577833508
80805.35048886796
80803.16863533958
80801.2396312834
80799.07060847679
80796.27556752891
80793.85770216797
80790.7853799977
80787.2586515751
80783.02506020216
80778.20192339394
80773.09515414944
80767.70348531334
80762.1067565819
80756.67341169645
80750.97912567672
80744.9400578933
80738.68690415245
80732.35873278874
80725.62198339652
80718.48668625984
80711.04585209735
80703.33350976392
80695.39928491408
80687.21099651093
80678.91900676367
80670.4062587013
80661.61747269527
80652.52636579725
80643.11486757993
80633.37898958533
80623.32068362464
80613.06800196797
80602.57651390291
80591.86723136672
80580.96711924118
80569.86944606194
80558.58305849414
80547.16834732213
80535.54087480926
80523.6666733053
80511.52173334638
80499.09369349902
80486.35863993596
80473.41802182159
80459.96626940426
80818.45393311436
80813.35502573877
80813.55066291575
80811.83238846973
80809.71468901449
80807.95799282622
80805.71553251756
80803.78732807994
80801.64848466286
80798.90681085664
80796.371412052
80793.25326181231
80789.71915450152
80785.48344231537
80780.6573030922
80775.52884449848
80770.1616908295
80764.59994279628
80759.09544277059
80753.40475056418
80747.2989840568
80741.03705344129
80734.59249525089
80727.76738244627
80720.56265915852
80713.06013398297
80705.27482093855
80697.25305633257
80688.95915458623
80680.56383018421
80671.9320538334
80663.0154251177
80653.79367679787
80644.25309915683
80634.39259733791
80624.21295377688
80613.84658599082
80603.24639840169
80592.43381198084
80581.43776823243
80570.25403957198
80558.89027646401
80547.41957333127
80535.76294519014
80523.89289592675
80511.79032195092
80499.44467604098
80486.83780186059
80474.055988022
80460.8523833885
80821.11683749541
80815.84616963241
80816.04551395349
80814.30825242777
80812.19398187875
80810.55376986286
80808.28363214823
80806.35867343383
80804.2599158955
80801.61289012297
80798.91991248335
80795.77586932178
80792.22299692882
80787.98075413871
80783.15261411219
80778.00764275958
80772.65583647115
80767.0773036669
80761.51461978855
80755.83820177623
80749.77291092218
80743.5269510724
80736.93863312749
80730.01613815995
80722.73565444283
80715.17068022175
80707.31737955434
80699.21368213049
80690.82905083202
80682.33463629677
80673.59364667792
80664.56148919127
80655.22283371401
80645.56733537813
80635.59627478311
80625.31232476667
80614.84423332967
80604.1509417879
80593.25160590514
80582.17723585325
80570.92416876214
80559.50381771519
80547.99245879553
80536.31888866308
80524.46124441331
80512.40501789901
80500.1415809063
80487.65831513242
80475.02841779706
80462.0523250775
80823.77765954028
80818.35341785043
80818.55891916057
80816.81781848855
80814.71663562767
80813.09176931597
80810.85876011988
80808.94749970095
80806.88972971214
80804.32262712292
80801.4911921171
80798.35602069194
80794.77764195492
80790.52250948938
80785.69552019273
80780.53626255122
80775.17929352357
80769.60666906045
80763.98273973921
80758.22915804514
80752.20648562985
80745.97109392159
80739.31548417476
80732.33041102889
80724.98543328003
80717.36595814892
80709.45192339219
80701.27514970275
80692.81235587942
80684.22540268168
80675.38451231086
80666.24876031587
80656.80632416515
80647.04963566558
80636.98218640723
80626.61191034743
80616.05330177852
80605.28101784975
80594.30922033187
80583.17105321425
80571.86147734484
80560.40139664101
80548.86088660157
80537.17884305568
80525.33841647154
80513.32955823262
80501.14580430934
80488.77909141261
80476.29180411795
80463.52184208602
80826.42835614549
80820.86081396864
80821.09158756242
80819.36103514607
80817.290626617
80815.60572850693
80813.44357974913
80811.56060616495
80809.54347956485
80807.03408772786
80804.06934209792
80800.97847763587
80797.37577781449
80793.11061488533
80788.2808182595
80783.12143248285
80777.74668064914
80772.18160050822
80766.50902399875
80760.68371929007
80754.67411309115
80748.46110795403
80741.74096187636
80734.70611138923
80727.30366972934
80719.63556465287
80711.66816551471
80703.4261950849
80694.89798006603
80686.22673153428
80677.29629388674
80668.0691270981
80658.53535805941
80648.69012671321
80638.53949906895
80628.09748550378
80617.45937476789
80606.61922384433
80595.58656948534
80584.39550058595
80573.03905038517
80561.55288398257
80549.99177124008
80538.30680190503
80526.48625029529
80514.52446557544
80502.41712992723
80490.16042969271
80477.80583023249
80465.22390665306
80829.06548701573
80823.36970531121
80823.63533777129
80821.93576836903
80819.89352608964
80818.08128039712
80816.01565708537
80814.17592973851
80812.19692631229
80809.70798558529
80806.69587971119
80803.62851612367
80800.00767690182
80795.73239922599
80790.90497485572
80785.75145491255
80780.37703375838
80774.80225035465
80769.05453350629
80763.22138382385
80757.19917020334
80750.97949039318
80744.21846403377
80737.13847447479
80729.68698327568
80721.97650559139
80713.96183837911
80705.66099822134
80697.07794883403
80688.32957947416
80679.31850773745
80670.01032311951
80660.39597403869
80650.47312641509
80640.25167094842
80629.75027255504
80619.04393125905
80608.14614641984
80597.06431175294
80585.82971609752
80574.43321122871
80562.93296863454
80551.35798484269
80539.6733734288
80527.87373508204
80515.9574820798
80503.92241673329
80491.76852085536
80479.53733045311
80467.12566054911
80831.70045469532
80825.87379289538
80826.18682673536
80824.53994834013
80822.52342694745
80820.53902419886
80818.58781640741
80816.80000411146
80814.8535569247
80812.37046387738
80809.35554457737
80806.28983206762
80802.66779916588
80798.38133304339
80793.56202126932
80788.42922515571
80783.08024412987
80777.62806957426
80771.71904783447
80765.82159537458
80759.78391635044
80753.55767047167
80746.75656426462
80739.63078948182
80732.13198098443
80724.38257264374
80716.32467097491
80707.97126979605
80699.3393845949
80690.52270116705
80681.43943548687
80672.06026641202
80662.37625819031
80652.38680639782
80642.10698183651
80631.55653380924
80620.79292768058
80609.84732473288
80598.72664875824
80587.45444648636
80576.02556821871
80564.51853033202
80552.93380626827
80541.25075509853
80529.47177001167
80517.59825663635
80505.63023530976
80493.57073059953
80481.45418522917
80469.19571796636
80834.31276342034
80828.36064172878
80828.72435299416
80827.13011032857
80825.13505273659
80822.98327266303
80821.15091966379
80819.42363021703
80817.50870355235
80815.03933390463
80811.99906155649
80808.95697004872
80805.33943249835
80801.04790380734
80796.23416875997
80791.08723494502
80785.75553783005
80780.31576501888
80774.39041079606
80768.45299582854
80762.40559559401
80756.16302817884
80749.3347152467
80742.17468555128
80734.63695018289
80726.85029965124
80718.75218868085
80710.35078470122
80701.67628334818
80692.79688720507
80683.64885976519
80674.20664130696
80664.46225919804
80654.41733373047
80644.08942016956
80633.50066197873
80622.6871630589
80611.70271755672
80600.55114234755
80589.24892426487
80577.79270422181
80566.28512216937
80554.69085921838
80543.01068157704
80531.25125216215
80519.41690953801
80507.50997048976
80495.53597705427
80483.52409898891
80471.40676241362
80836.93871100526
80830.82025773365
80831.24719279225
80829.71605105567
80827.7305002035
80825.441238068
80823.70584293839
80822.03738290921
80820.15445229445
80817.7103701664
80814.65748706629
80811.62181587033
80808.01947155186
80803.72582570012
80798.90754625171
80793.78340841495
80788.45624497639
80783.0434601715
80777.09570385572
80771.12416409078
80765.06202326478
80758.78534884716
80751.93859961854
80744.75783686897
80737.19967462364
80729.372499562
80721.23779248976
80712.79343077427
80704.0803436821
80695.14322058554
80685.93663266212
80676.43787363697
80666.64153547845
80656.55081392544
80646.18347316711
80635.56225507121
80624.70875214519
80613.69653686216
80602.52270484078
80591.1892638727
80579.72826690772
80568.20600180246
80556.60328164196
80544.92665437241
80533.18532102341
80521.38638043466
80509.53441850506
80497.63690164176
80485.71908401644
80473.73094357716
80839.49703557725
80833.24619619895
80833.74524468093
80832.27363945145
80830.28741036318
80827.9040043955
80826.24846602792
80824.63261379347
80822.77741579391
80820.34700096492
80817.35492282023
80814.28824844355
80810.70471700391
80806.40649778619
80801.59718638915
80796.49886626187
80791.18963515607
80785.77181142644
80779.82190241401
80773.82920188092
80767.75117048477
80761.42640182376
80754.57115001473
80747.37858328597
80739.81085250861
80731.94613122876
80723.7769906644
80715.29382226766
80706.54581858517
80697.55525976252
80688.29385415143
80678.74365112223
80668.90191668748
80658.77262996795
80648.37165302387
80637.72241628511
80626.84779918745
80615.80809482549
80604.60650750353
80593.25099517495
80581.7943116963
80570.26121780246
80558.65047369451
80546.97678263903
80535.25131932332
80523.48343334151
80511.67987375053
80499.84942822746
80488.01366689686
80476.14568783001
80842.03458734727
80835.62482987024
80836.20131861078
80834.79928849007
80832.79473986705
80830.37638575422
80828.78215696616
80827.20580464248
80825.36085845696
80822.93305211801
80820.07456707102
80816.9509349833
80813.38463565706
80809.09890969495
80804.31082103727
80799.24309611687
80793.92414205847
80788.52248566307
80782.56856501855
80776.56046794352
80770.45991250277
80764.08713405472
80757.22895042718
80750.03041174742
80742.45867593378
80734.56160091185
80726.36241290015
80717.8469853875
80709.0655958751
80700.02617751615
80690.71155816427
80681.11489742316
80671.23257136236
80661.07009124983
80650.64301876481
80639.97455141932
80629.08562839615
80618.01515263146
80606.79212221033
80595.43263201325
80583.97193754713
80572.42763930382
80560.81083701453
80549.13997890263
80537.42823999518
80525.68708840245
80513.92528939327
80502.15271664095
80490.38845830873
80478.62373520236
80844.52102566035
80837.92824760806
80838.58669679206
80837.2650936647
80835.26417622043
80832.84418473106
80831.30382806242
80829.75706225274
80827.8900414009
80825.45881169137
80822.78598860359
80819.6005572245
80816.04720441403
80811.78513822325
80807.03279574755
80801.97823234502
80796.68752905128
80791.28247827126
80785.33620248063
80779.31674998923
80773.18504019835
80766.76774279277
80759.91021481853
80752.70752426294
80745.13333487928
80737.21403377521
80728.98746317058
80720.44648937628