/*--------------------------------*- C++ -*----------------------------------*\
| =========                 |                                                 |
| \\      /  F ield         | OpenFOAM: The Open Source CFD Toolbox           |
|  \\    /   O peration     | Version:  v1912                                 |
|   \\  /    A nd           | Website:  www.openfoam.com                      |
|    \\/     M anipulation  |                                                 |
\*---------------------------------------------------------------------------*/
FoamFile
{
    version     2.0;
    format      ascii;
    class       volScalarField;
    location    "1000";
    object      rDeltaTau;
}
// * * * * * * * * * * * * * * * * * * * * * * * * * * * * * * * * * * * * * //

dimensions      [0 0 -1 0 0 0 0];


internalField   nonuniform List<scalar> 
7500
(
0.03603202679267962
0.03603589449376072
0.03603917983633697
0.03604212791237624
0.03604585076016895
0.03605167929476007
0.03605963111329259
0.03606814944780146
0.0360757604018168
0.03608143855029594
0.03608388750871689
0.03608365709469587
0.03608201911802531
0.03607933210571028
0.03607623426177436
0.03607307566764111
0.03607003249433749
0.03606714042845927
0.03606455157242912
0.0360623718840033
0.03606048201294302
0.0360587364956993
0.03605703579135176
0.03605515634885807
0.03605276723173336
0.03604950692988978
0.03604508314648273
0.0360393453231506
0.03603250306741448
0.03602483622405368
0.03601665989593504
0.03600825790795863
0.03599983094696432
0.03599135149578104
0.03598255772146092
0.03597313732561124
0.03596301656008093
0.03595246274183921
0.03594167157427339
0.0359304858282674
0.0359185546355076
0.03590529912738346
0.03588973443621678
0.03587057752244904
0.03584620250301825
0.03581449839787454
0.03577159568152488
0.03571147811243457
0.03646986533564035
0.03719926264235316
0.03603307473431695
0.03603687758476379
0.03603883235281104
0.03604018849570853
0.03604229660091027
0.03604779865750592
0.03605725956224066
0.03606845350524533
0.03607934163827821
0.03608863540937866
0.03609408645459549
0.0360965547129466
0.03609794641752392
0.03609793356331845
0.03609661404344736
0.03609430395331697
0.0360913498443464
0.03608790680406799
0.0360844264510538
0.0360813167870835
0.03607876599746673
0.03607691216770839
0.03607573761960325
0.03607472378507039
0.0360730204078941
0.03606988107463892
0.03606489758474644
0.03605780074837837
0.03604905364000947
0.03603943867659332
0.03602977152232955
0.03602046892712933
0.03601156178312992
0.03600269989076418
0.03599334430175591
0.03598308662081547
0.03597191856600945
0.03596029893760971
0.03594883746827687
0.03593787898262133
0.03592735995372818
0.03591677371811011
0.03590535258590123
0.03589226149441377
0.03587687328827002
0.03585976296243117
0.03584361189450782
0.0358340937439986
0.03673347657918084
0.03746814611076445
0.0360333238584522
0.03603743344642733
0.03603973651207256
0.03604032841220983
0.03604018099314344
0.03604300414998027
0.036051079941976
0.03606276618139542
0.03607531545017455
0.03608724971414835
0.03609431103511053
0.03609689178476221
0.03609911796760432
0.03610039601736621
0.03610086260172862
0.03610064212672182
0.03609976883420379
0.03609807871332291
0.03609580393334047
0.03609338441927689
0.03609155062063774
0.03609105097009677
0.03609209868332122
0.03609405957426654
0.03609549998342598
0.03609488748367655
0.03609124741487864
0.03608397000780114
0.03607372991455825
0.03606161484027739
0.03604912335994638
0.03603734674413962
0.03602675883780757
0.03601717927040224
0.03600782561311351
0.0359977850894542
0.03598665559518427
0.03597482578175733
0.03596317599093064
0.03595240175590976
0.0359426672440056
0.03593374859187629
0.03592528754754824
0.03591686490031398
0.03590837537643664
0.03590082060977927
0.03589703865114009
0.03589959591538108
0.03677670572415756
0.03751223983864072
0.03603358366583769
0.03603745643396038
0.03604031969430908
0.03604192502675741
0.03604153401320704
0.03604243436090528
0.03604779042825756
0.03605792810154711
0.03607082390769158
0.03608531563252915
0.03609448999833813
0.03609716983549141
0.03609961218888279
0.03610102387771174
0.03610161373903679
0.03610169172400156
0.03610112889554661
0.03609959930454059
0.03609704060691944
0.03609390860313844
0.03609140631546139
0.03609091506852761
0.03609304301647072
0.03609746817409092
0.0361026759808443
0.03610647402938127
0.03610708237248583
0.03610341919817167
0.03609572517159645
0.03608470903897255
0.03607212799138165
0.03605966302666928
0.0360482849281784
0.03603807894971189
0.03602832418547434
0.03601804713100097
0.03600673753219142
0.03599470972906961
0.03598287114439525
0.03597209683308415
0.03596284285134418
0.03595529134648213
0.03594941446744617
0.03594506386980949
0.03594252306480632
0.03594314606450286
0.03595029591501476
0.03596139328858836
0.03681261278348909
0.03754886503915888
0.03603369845719053
0.03603712599801456
0.03604033664845856
0.03604318653871712
0.0360437939794243
0.03604448127175738
0.03604796478480296
0.03605567107501862
0.03606702826846032
0.03608188331545719
0.03609245122350117
0.03609651134273635
0.03609971523726094
0.03610247721544033
0.03610397093459312
0.03610461305392802
0.03610437357343951
0.03610286068137104
0.03609980898320629
0.03609559400627249
0.03609136940072125
0.03608878549052053
0.03608923137991892
0.03609323636020458
0.03609968057540472
0.03610607486522297
0.03610995558981092
0.03610963709690736
0.03610479941167184
0.03609609020501599
0.03608518355962018
0.03607403815523323
0.03606407002182448
0.03605567250426936
0.03604821298860211
0.03604054155271506
0.03603175104093839
0.03602173205999819
0.03601116830003813
0.0360010884758146
0.03599243147048498
0.03598584190329497
0.03598160789712943
0.03597960404211949
0.03597976903729865
0.03598286210166247
0.03599216661883855
0.03600403895021249
0.03680673502459395
0.03754286972508583
0.03603401154996108
0.03603721137364663
0.03604012574349191
0.03604356058065024
0.0360451648225229
0.03604669931166633
0.03605005316203493
0.03605642228085921
0.03606574557719015
0.03607958177329153
0.03608996104335845
0.03609462968279549
0.03609805953161779
0.03610223775018069
0.0361051251303322
0.03610702495494073
0.03610784523431685
0.03610708587956325
0.03610433949346583
0.03609995347274673
0.03609499533554991
0.03609102341538565
0.03608967936873642
0.03609195263384299
0.03609736271871909
0.03610373896948984
0.03610855751584965
0.0361098718756486
0.03610687338164036
0.03609997209988221
0.03609048349175182
0.03608035247828774
0.03607122308149683
0.03606390299023632
0.03605815915170825
0.03605303848886048
0.03604753261114962
0.03604117135018572
0.03603424402725146
0.03602758628684858
0.03602217807558705
0.03601880232863845
0.03601796693654103
0.03601947823926913
0.03602285687346719
0.03602815216099167
0.03603805205590334
0.03604904190478449
0.03678969859878845
0.03752549257076422
0.03603430082861384
0.03603751579338183
0.03604026809981748
0.03604377538554331
0.03604567239137449
0.03604777919307097
0.03605166863767863
0.03605799230032265
0.03606641780629427
0.03607912803499155
0.03608879840059368
0.03609300991873234
0.03609587939413225
0.0361005890742508
0.03610443958609052
0.03610756867416935
0.03610978872489484
0.03611045339672869
0.03610882681911071
0.03610503375176845
0.03610011284745433
0.03609554890170055
0.03609301638153777
0.03609377877150933
0.03609789589271607
0.03610374850420557
0.03610892394343054
0.03611126683653008
0.03610961147434502
0.0361040111363744
0.03609543880206693
0.03608578505515775
0.03607679621589936
0.03606953536207934
0.03606412846045496
0.03605993876733538
0.03605608312764148
0.03605199859436839
0.03604777979472446
0.03604412647714154
0.03604199554865885
0.03604215424033486
0.03604517335415371
0.03605096823439649
0.03605905756112966
0.03606855013370285
0.03608074132014705
0.03609285283098874
0.03677191533228666
0.03750735363893239
0.03603456075537503
0.03603783901815515
0.03604065980680628
0.03604422172524994
0.03604612460715053
0.03604834605558484
0.03605253807013665
0.03605909595139434
0.03606749344306261
0.0360793571485944
0.0360888604019624
0.03609264966551026
0.03609495545670094
0.03609943313118245
0.03610331726834901
0.03610679029300608
0.03610979857610794
0.03611177241265063
0.03611166763066519
0.03610917508674312
0.03610513169145929
0.03610094089971056
0.03609806049138754
0.0360977955478709
0.03610053587330352
0.03610529182710323
0.03611009932353611
0.03611288404318887
0.03611224276297818
0.03610791200207793
0.03610064789566683
0.03609209104039449
0.03608387701237927
0.03607708073741094
0.03607193420269407
0.0360679846414296
0.03606454526790587
0.03606116486113072
0.0360579426767187
0.03605555566759493
0.03605500670336546
0.03605711299158756
0.03606247622196183
0.0360711242269432
0.03608269257393777
0.03609605379180064
0.03611163820171737
0.03612715607228151
0.03675221045532003
0.03748725466442643
0.03603479785058843
0.0360381298092101
0.03604113215832113
0.0360447965817089
0.03604668079640097
0.03604886829240311
0.03605315585722636
0.03605983020558812
0.03606823639628728
0.03607924325801368
0.03608892609429088
0.03609272071795138
0.03609519582360171
0.03609949692966474
0.03610316619461088
0.03610638325200921
0.03610927638474069
0.03611161107597235
0.03611249889134166
0.03611135985977623
0.03610865456070496
0.03610564675356934
0.0361034370244683
0.03610307133847141
0.03610500233986442
0.03610865399313992
0.03611260327325464
0.03611514830124804
0.03611491572278849
0.0361114303478897
0.03610524955767792
0.0360977622722337
0.03609051327225671
0.03608458981141589
0.03608027937027711
0.03607715145532168
0.03607450379329788
0.03607189647504178
0.03606945341556443
0.03606778989053808
0.03606785802571696
0.03607056710344152
0.03607650487803116
0.03608580495733667
0.03609827401388719
0.03611291120223635
0.0361297707375883
0.03614736242501532
0.03672197280393429
0.03745641226001297
0.03603503026288212
0.03603841590744148
0.03604164086426728
0.03604542087114914
0.03604726502066315
0.03604936100695685
0.03605369963535892
0.03606050240618986
0.03606894255753146
0.03607898303253046
0.03608865387453536
0.03609245387781931
0.03609567078550705
0.03610013926356791
0.03610393724705347
0.03610709438688289
0.03610972338619123
0.03611171754435012
0.03611258366739682
0.03611195311380344
0.03611026046543529
0.03610851809331771
0.03610754937185662
0.03610806780173721
0.03611023378307418
0.03611346936670847
0.03611665943587077
0.036118542454238
0.03611807166392685
0.03611484824832132
0.03610932200668671
0.03610266336492908
0.03609624934702853
0.0360911322387141
0.03608767133555073
0.03608549752374018
0.03608388639120095
0.03608232647149036
0.0360808792013018
0.03608008404867481
0.03608079814994304
0.03608395685175483
0.03609019287920485
0.03609959098391066
0.03611195935967137
0.03612645057317327
0.03614280155735115
0.0361601710055086
0.03668120623949219
0.03741483036428204
0.03603525037245592
0.03603868601980117
0.03604216005500184
0.03604608584498169
0.03604789522012255
0.0360498382019849
0.0360541320147434
0.0360610420139083
0.0360696449430867
0.0360789395626995
0.03608851162173544
0.0360920723414438
0.03609600880431336
0.036100600728461
0.0361047241571465
0.03610825452358849
0.03611107967353228
0.03611294077833307
0.03611348178012722
0.03611257477991255
0.0361109547758138
0.03610973940278515
0.03610974564242211
0.03611145558181169
0.03611463619773896
0.03611841202353239
0.03612162416216796
0.03612320753038566
0.03612240921422943
0.03611902398600765
0.03611358959865153
0.03610727121353492
0.03610135010043798
0.03609679858801181
0.03609398640865124
0.03609261212851998
0.03609197749302719
0.03609151136935337
0.03609115608501978
0.03609131258810606
0.03609271228638559
0.03609622403890317
0.03610255289973672
0.03611186369079159
0.0361239475293224
0.03613809627643421
0.03615379491861049
0.03617041126128848
0.0366360625012213
0.03736878375124573
0.03603547238058084
0.03603895540669438
0.03604266163104614
0.03604674230535382
0.0360485546820087
0.03605035778642404
0.03605452830632391
0.03606142346148316
0.03607016505934953
0.03607911914256737
0.0360885964259886
0.03609206835328141
0.03609654442915007
0.03610102887972919
0.03610521002718575
0.03610903848550771
0.03611230414620863
0.03611458539457923
0.03611529865027599
0.03611423002638875
0.03611226933573577
0.03611080054152642
0.03611092434275784
0.03611325012344491
0.03611739896504985
0.03612215439349943
0.03612609756354822
0.03612808573894256
0.03612747076052217
0.03612410000868698
0.03611859538297488
0.03611227988230877
0.03610645986685588
0.03610208273232447
0.03609953672149058
0.03609860562698447
0.03609867608521294
0.03609918025619378
0.03609993668027645
0.03610114673256713
0.03610333255345675
0.03610721391743134
0.03611346159711897
0.03612235007939651
0.03613376390451867
0.03614718938480832
0.03616208761848117
0.03617791780930828
0.03658877465840251
0.03732055015157056
0.03603569884789175
0.03603923701402789
0.03604314798446003
0.03604736496234928
0.03604919541647329
0.03605090266284906
0.03605496238121401
0.03606177118326543
0.03607053595714636
0.03607949040245919
0.03608868048424116
0.03609258989876372
0.03609735378011827
0.03610175349129569
0.0361058035227505
0.03610959926721027
0.03611302904932043
0.03611574573509518
0.03611700360329045
0.03611632713520518
0.03611440816799136
0.03611269952463862
0.03611251041222218
0.03611473017451625
0.0361191709063349
0.03612453380414613
0.0361292317628628
0.03613197463347689
0.0361320898515826
0.03612931167249114
0.03612409957149088
0.03611789339215685
0.03611206297599163
0.03610759371033039
0.03610493516784082
0.03610398061301701
0.03610425903744405
0.03610531009514419
0.03610692629925004
0.03610915906137787
0.03611229576992952
0.03611680592116313
0.03612319446233545
0.03613169546446959
0.0361422380667193
0.03615448249947964
0.03616805182606639
0.03618259769446585
0.03619765425121431
0.03726917492787694
0.03603592935346397
0.03603953646417703
0.03604362144243609
0.03604794605850195
0.03604978481034601
0.03605141935930788
0.03605541286140953
0.03606215426053339
0.03607088878203072
0.0360799158810477
0.03608867692750461
0.03609330643865176
0.03609820222284559
0.03610267312784773
0.03610667255635115
0.0361103469557982
0.03611370183096688
0.03611655452321384
0.03611819346540621
0.03611802021114933
0.03611646189979683
0.03611496686118146
0.0361147964382846
0.03611686541440189
0.03612114721416156
0.03612651443459481
0.0361314718317778
0.03613469690397526
0.03613546582100855
0.0361335028598138
0.03612907040109843
0.03612346717812299
0.03611798218099376
0.03611358085993312
0.03611074544315636
0.03610946876868173
0.03610945252086536
0.03611043645837259
0.03611233254800927
0.03611518893160973
0.03611914941984536
0.03612444704741407
0.03613133257428082
0.03613985061347463
0.03614983513962652
0.03616097327258035
0.03617301364956767
0.0361858181378222
0.03619917896836039
0.0372147680578066
0.03603616365744413
0.03603984937261124
0.03604407796796617
0.03604848883700834
0.03605032676304323
0.03605189073631206
0.03605583546158646
0.03606254595612838
0.03607127138621228
0.0360803410135626
0.03608866090769533
0.0360939219856173
0.03609894710268311
0.03610354853479361
0.03610761451244993
0.03611128563595217
0.03611460840962683
0.03611746187875311
0.03611919959088188
0.03611927315030626
0.03611803919993983
0.03611690095979543
0.03611705625299819
0.03611932668339314
0.03612364317327808
0.03612892446960949
0.03613378734310232
0.03613702418100959
0.03613796030367153
0.03613642182945866
0.03613273395363979
0.03612801883461951
0.0361233596587381
0.0361195327339054
0.03611689597317971
0.03611542819754854
0.03611494177486742
0.03611539715879248
0.0361169365586067
0.03611976245276233
0.03612403851167937
0.03612989096790714
0.03613735078053717
0.03614622792511586
0.03615615282192503
0.03616665249960082
0.03617748074922048
0.03618861492758004
0.03620005155747136
0.03715876703034353
0.0360364015015082
0.0360401501923048
0.03604450128599182
0.0360489947295676
0.03605083262633466
0.03605232709445909
0.03605622109564615
0.03606291351834223
0.03607165793646779
0.03608078445039023
0.03608876265121743
0.03609450843177622
0.0360996240172115
0.03610431827868608
0.03610846325295738
0.03611221646022764
0.03611560577821293
0.03611851060546629
0.03612030685511571
0.03612047264147505
0.03611938998526526
0.03611842440513092
0.03611881906486682
0.03612139678264003
0.03612605565572101
0.03613157501402006
0.03613651883378435
0.03613971582857532
0.03614055658043552
0.03613894249361831
0.03613540699075737
0.03613118984493952
0.03612733151686254
0.03612440436763054
0.03612249760513531
0.03612138343342003
0.03612079799584948
0.03612077021872506
0.03612163253276429
0.03612384359744009
0.03612776651527283
0.03613356852829311
0.0361412228167375
0.03615042991747438
0.03616059445809776
0.03617097490191068
0.03618117046691299
0.03619112780025351
0.03620088286237167
0.03710241917248149
0.03603663195583849
0.03604041748322109
0.03604489754536441
0.03604947060450525
0.03605130081550924
0.03605273193028927
0.03605657373570123
0.03606324778938158
0.03607202315292096
0.03608122240337528
0.03608912123428643
0.0360950939254349
0.03610028587787707
0.03610504545828653
0.03610923278220565
0.03611304351251384
0.03611650199121545
0.03611950193212633
0.03612143336925045
0.036121751177106
0.0361207757593502
0.0361198636299388
0.0361202954293498
0.03612297213910403
0.03612789941416784
0.03613381643277527
0.03613916479795764
0.03614263367565883
0.03614356874743253
0.0361418500288293
0.03613807280411237
0.03613373945730608
0.03613008839804969
0.03612774525406919
0.03612665825773705
0.03612632500551802
0.03612621248894965
0.03612620661541183
0.03612665363747448
0.03612814983356855
0.03613127780335057
0.03613641392705318
0.03614365240769817
0.03615269726481245
0.03616290617644322
0.0361734125657459
0.03618349704937293
0.0361928851204144
0.03620151081770737
0.03704634333004676
0.03603685258360863
0.03604067400470932
0.03604527280237879
0.03604990981573405
0.036051726971742
0.03605310188795773
0.03605689302037423
0.03606355058382727
0.03607236507480482
0.03608164279764745
0.03608962539372654
0.03609566189990288
0.03610092661863592
0.03610574701564855
0.03610996152503126
0.03611379241480439
0.03611728990496937
0.03612037566911343
0.03612244662775614
0.03612295417029388
0.03612212846201843
0.03612132464100559
0.03612178690847994
0.03612444322750698
0.03612938809148168
0.03613548937545702
0.03614121448018794
0.03614513281971737
0.03614646798800861
0.03614502022503972
0.03614116368265003
0.03613652865118307
0.03613257711448094
0.03613016895119785
0.0361293931586258
0.03612969447563246
0.03613030887700662
0.03613083670282433
0.03613141643346501
0.03613258202712596
0.03613501094282079
0.03613926770021621
0.03614563413396696
0.03615394992550918
0.03616366415640741
0.0361739493725133
0.03618397151418355
0.03619320999107114
0.03620135163784605
0.03699050619341029
0.03603706055691572
0.03604093016872974
0.03604562554011375
0.03605031166000371
0.03605211086142981
0.03605343226859083
0.03605717422515766
0.03606381925034458
0.0360726809799855
0.03608204572778011
0.03609011223578751
0.0360962059242522
0.03610153355326927
0.03610640389485659
0.0361106418271648
0.03611448854237625
0.03611801502858432
0.03612116839666987
0.03612334138864088
0.036123997571462
0.03612333092348831
0.03612268016273455
0.03612325120115834
0.03612596261191262
0.03613086930368144
0.03613693869816604
0.0361427721872504
0.03614698111403759
0.03614873589892873
0.03614779769718777
0.03614424790021056
0.03613960592641656
0.0361353717862789
0.03613256965926545
0.03613152460103665
0.0361318792724718
0.03613289640444464
0.03613399742182912
0.03613505716665609
0.03613640558838403
0.0361386337248055
0.03614230408196536
0.03614778123874099
0.0361550890270344
0.03616383462660106
0.03617333028677717
0.0361828452695669
0.03619180715638213
0.0361997377551771
0.03693431571107637
0.03603726009344865
0.03604118828547512
0.03604595532397686
0.03605067523392901
0.03605244803743315
0.03605371670281604
0.03605741148566765
0.03606404845913101
0.03607296359947727
0.03608242389474881
0.03609057709613748
0.03609672553875518
0.03610210740209519
0.03610700960453576
0.0361112561797126
0.0361151174471733
0.03611867410662535
0.03612188948420622
0.03612415652651591
0.03612493412501041
0.03612438643408708
0.03612384977764091
0.03612452541041829
0.03612735727715876
0.03613232636841172
0.03613838457994545
0.03614420649007639
0.03614848856803083
0.03615044701002647
0.03614986990314857
0.03614675180006046
0.03614242519339392
0.03613824969985713
0.0361352188438247
0.03613376154321171
0.03613372142757705
0.03613456198172185
0.03613579110029537
0.03613720965377859
0.03613895982324056
0.03614142225047198
0.03614500781230121
0.0361500115279873
0.03615649926457613
0.03616418421863293
0.03617254440487341
0.03618103212403723
0.03618922413784258
0.03619669578376589
0.0368772474858529
0.03603745175802059
0.03604144548490139
0.03604625965513652
0.0360510018390002
0.03605274076780862
0.03605395382028277
0.03605760317402286
0.03606423682139324
0.0360732087170728
0.03608276817534534
0.03609101240171681
0.0360972189893922
0.03610265068069389
0.03610757067038513
0.0361118063495213
0.0361156647542876
0.03611924179377112
0.03612251424404335
0.03612488432234279
0.03612579665903785
0.03612535112787513
0.03612488622673216
0.03612560280883964
0.03612851776451408
0.03613358724550859
0.03613972383495792
0.03614558928108778
0.03614990428504586
0.0361519486613119
0.0361515145581635
0.03614864450765624
0.03614460526414295
0.03614064732412867
0.03613765735728801
0.03613601600291563
0.03613562249431974
0.03613608213868583
0.0361370465010899
0.03613839756372623
0.03614026516360822
0.03614292051831537
0.03614662916516206
0.03615156135224014
0.03615769728582508
0.03616470305592119
0.03617207789517576
0.036179412281529
0.03618647540721076
0.03619305111360083
0.03681940624811662
0.03603763786200842
0.03604170511209309
0.03604653516195674
0.03605128771093066
0.03605298827390385
0.03605414231085951
0.03605774651727262
0.03606438286124423
0.0360734165854286
0.03608307579882836
0.03609141521835623
0.03609768201836799
0.03610315700087004
0.03610808212224624
0.03611229192316227
0.03611613050610719
0.03611971578508869
0.03612303487261631
0.03612549729305652
0.03612655000062144
0.03612622401288128
0.03612583047994343
0.03612654922785988
0.03612947476249903
0.03613458105012601
0.03614080144995224
0.03614678253484817
0.03615121531625465
0.03615337516762583
0.03615302359735746
0.03615022226017094
0.03614626017897864
0.03614238758747117
0.03613946414856546
0.03613782419466886
0.03613733355008701
0.03613760457937012
0.03613831961733546
0.03613940267652986
0.03614102271802045
0.03614348506600822
0.03614706451623356
0.03615188763138497
0.03615788159171107
0.03616464864081025
0.03617157247654605
0.03617817841491063
0.03618427153576038
0.03618978552149045
0.03676155213410475
0.03603781704996888
0.03604196652581576
0.03604678150266744
0.03605153471988675
0.03605319231209712
0.03605428264219925
0.03605783787905995
0.0360644813833769
0.03607358336897577
0.03608334619225281
0.03609178778045201
0.0360981141630376
0.03610362254413663
0.03610853431285955
0.03611270160941673
0.03611651036151652
0.03612009793219291
0.0361234524691707
0.03612598525639318
0.0361271686624279
0.03612697486252405
0.03612665993988944
0.0361273892226139
0.03613029419953072
0.03613537562085163
0.03614162816660085
0.03614771597493126
0.03615230214122582
0.03615462574326788
0.03615440965887037
0.03615164914849661
0.03614764974336643
0.03614369805819326
0.03614069438973565
0.03613901016131282
0.03613852222128576
0.0361388068103589
0.03613946275752792
0.03614036325094477
0.03614167648644093
0.03614373386999435
0.03614687900748252
0.03615131239730032
0.03615699201854584
0.03616355988124025
0.03617038560387555
0.0361768044250762
0.03618243396562217
0.03618717203527304
0.03670448360187577
0.0360379983821743
0.03604223482193018
0.03604699674902425
0.0360517409813442
0.0360533499328491
0.03605437043406104
0.03605787027246208
0.03606452740644661
0.03607370596542545
0.03608358172413713
0.03609213266364245
0.03609851908623565
0.03610404764068043
0.03610892068828169
0.03611302069287349
0.03611678541081569
0.03612036563732075
0.03612375336015958
0.03612636281143589
0.03612766954542294
0.03612759658679947
0.03612735797092329
0.03612811108555429
0.03613098112781747
0.0361360200716643
0.03614227763991423
0.03614843661506456
0.03615314002374995
0.03615559799905869
0.03615551945624121
0.03615283458399438
0.03614883792418065
0.03614481406576013
0.03614167699361801
0.03613984191590251
0.03613924367602456
0.03613947931005895
0.03614009361433625
0.03614089393534468
0.0361420133434684
0.03614375504844676
0.0361464715271555
0.03615041985327832
0.03615562961430344
0.03616181389604501
0.03616842158238637
0.03617477298753553
0.03618029349872032
0.03618468131125167
0.03664833690646527
0.0360381831111885
0.03604251158873359
0.03604718440350398
0.03605191084229949
0.03605346591031965
0.03605440734810237
0.03605784059377876
0.03606451686693721
0.03607377781333285
0.03608377780512921
0.03609244711086142
0.03609890335689693
0.03610444046679893
0.03610925519016731
0.03611326490720305
0.03611696593940646
0.03612052351167933
0.03612393088180237
0.03612661187497719
0.03612803542616429
0.0361280766478248
0.03612791537613806
0.03612869965074333
0.03613152578184777
0.03613652163915755
0.0361427839992747
0.03614899417917958
0.03615376895863454
0.03615629717570296
0.03615629951893797
0.03615369190363061
0.03614975798042338
0.03614575385812485
0.03614255834329369
0.03614056915299707
0.03613973692602099
0.03613970887688838
0.03614009568117645
0.03614072694248874
0.03614170642920356
0.03614330822249402
0.03614585380807329
0.03614953722661712
0.03615435345324346
0.03616005838950955
0.03616618826829079
0.03617215509430573
0.03617741506521091
0.03618157150552347
0.03659261063155412
0.03603836382904889
0.03604279015648929
0.0360473455419032
0.03605204460197248
0.0360535401116226
0.03605439975869389
0.03605775951697765
0.03606446205234296
0.03607381155180252
0.03608393950561237
0.03609272575914291
0.0360992627581381
0.03610480351814441
0.03610954638505597
0.03611344597808569
0.03611706152288911
0.03612057956978389
0.03612399945095216
0.03612674588995896
0.03612826798525171
0.03612841315287096
0.03612832928395177
0.03612914912579959
0.03613192795110123
0.03613686504432817
0.03614311389801014
0.03614935489814168
0.03615417974381479
0.0361567551930015
0.03615682159525861
0.03615429580428646
0.03615043835487312
0.03614647738637967
0.03614325409102229
0.03614112659985904
0.03614002660410968
0.03613963542392607
0.03613964710112617
0.03613997185675191
0.03614075754560713
0.03614229935572433
0.03614488016261189
0.03614856845719937
0.03615322795989365
0.03615857993527551
0.03616414819423165
0.03616939952559118
0.03617398260871526
0.03617763143382945
0.03618055985273136
0.03603853795070365
0.03604306834845505
0.03604748293340667
0.0360521383258952
0.03605356585709879
0.03605434501826452
0.03605762846128863
0.03606436371876473
0.03607380931759312
0.03608406631313498
0.03609296943324064
0.03609959431465975
0.03610513537613722
0.03610979278360504
0.03611356340835962
0.03611707280704134
0.03612053416924019
0.03612395682950225
0.0361267626141802
0.03612837587619089
0.03612862751988449
0.03612862090975289
0.03612947377561491
0.03613219892185668
0.03613704510305734
0.03614323290332034
0.03614946460339327
0.03615433882726451
0.03615700437176501
0.0361571898794844
0.0361547903852872
0.03615099514499426
0.0361470029083126
0.03614365132000066
0.03614130624443442
0.03613992025743065
0.03613921378317782
0.03613890958555872
0.0361389499477678
0.03613953399294582
0.03614098952135782
0.0361435809901799
0.03614729996538091
0.03615189771982355
0.03615704024115378
0.03616215760882419
0.03616668571140519
0.03617043452248226
0.03617333748505545
0.03617572309249134
0.03603870294829643
0.03604334423120825
0.03604760388339134
0.03605219473913089
0.03605354044930385
0.03605423689391525
0.03605744555941037
0.03606422009657571
0.03607377054381018
0.03608415934551507
0.03609318514904361
0.0360999018505091
0.03610543573564821
0.03610999138834203
0.03611361186044774
0.03611699315476302
0.03612037953266884
0.036123797660864
0.03612666891502032
0.03612837744563441
0.03612873835283562
0.03612880266525394
0.03612967131908894
0.03613232076112405
0.03613704363766908
0.03614313564527947
0.03614933690748709
0.03615428639901973
0.03615711428975926
0.03615747496388692
0.03615522678884535
0.03615145339326281
0.03614732111751386
0.03614369538835702
0.03614100952774089
0.03613930209455921
0.03613836383288407
0.03613791940865469
0.03613786227571886
0.03613835623783634
0.0361397087868173
0.03614217152537438
0.036145727512575
0.03615010457692947
0.03615495320736919
0.03615969273356083
0.03616374003309238
0.03616691485480026
0.03616921896168082
0.03617110448578007
0.03603886626957374
0.03604362269536934
0.03604770683660435
0.03605221869263993
0.03605346971076551
0.03605407618486671
0.03605721059744324
0.03606402978339074
0.03607369702262184
0.03608422537203071
0.03609337958996341
0.03610018777351809
0.03610570061191379
0.03611013443239224
0.03611358188847617
0.03611681484031962
0.03612011667431032
0.03612353596627827
0.0361264866355198
0.03612829355780105
0.03612875085466509
0.03612886188955613
0.03612971000431331
0.03613224780404461
0.03613683739044579
0.03614285261758758
0.03614906010168745
0.03615413333933554
0.03615715667436147
0.03615768013576199
0.036155520917976
0.03615168518433968
0.03614732764176816
0.0361433623070491
0.03614031172223849
0.03613830932846197
0.03613721182286835
0.03613675123188926
0.03613674530736759
0.03613724665842541
0.03613849082063125
0.03614070420443057
0.03614389730246345
0.03614785349484222
0.03615223887939951
0.03615657770721958
0.03616036909217266
0.03616334717788867
0.03616543027042017
0.03616706500324546
0.03603901683561234
0.03604389436720185
0.03604779547184542
0.03605221603268174
0.03605335779581955
0.03605386359946336
0.03605692149486962
0.03606379026337728
0.0360735897008376
0.03608427334849536
0.03609356079435144
0.03610045241090689
0.03610592283761317
0.0361102105696851