/*--------------------------------*- C++ -*----------------------------------*\
| =========                 |                                                 |
| \\      /  F ield         | OpenFOAM: The Open Source CFD Toolbox           |
|  \\    /   O peration     | Version:  v1912                                 |
|   \\  /    A nd           | Website:  www.openfoam.com                      |
|    \\/     M anipulation  |                                                 |
\*---------------------------------------------------------------------------*/
FoamFile
{
    version     2.0;
    format      ascii;
    class       volScalarField;
    location    "1000";
    object      rho;
}
// * * * * * * * * * * * * * * * * * * * * * * * * * * * * * * * * * * * * * //

dimensions      [1 -3 0 0 0 0 0];


internalField   nonuniform List<scalar> 
7500
(
0.9764781076361084
0.976131170427431
0.975844892966731
0.9755122033533523
0.9750867747767213
0.9745278804243205
0.9738645645714485
0.9731998003675112
0.9726508301487085
0.9722709903374087
0.9720745593166049
0.9720127017404057
0.9720137415198362
0.9720385843026368
0.9720440951278384
0.9720294044489131
0.9720009471044693
0.9719777762178969
0.9719621922185493
0.971946059484093
0.971930512388249
0.9719108680407561
0.9718807459755772
0.9718388265573059
0.9717986086608124
0.9717854469137907
0.971827859918275
0.9719483522698071
0.9721359279976155
0.9723726757785603
0.9726319804427003
0.9728793258848927
0.9730848589367623
0.9732360166559618
0.9733385060131364
0.9734104029945222
0.9734661224923943
0.9735108177334852
0.9735414775414508
0.9735551579335043
0.9735536138927882
0.9735522951896275
0.9735707219650204
0.9736301611808035
0.9737489408332665
0.9739387205313157
0.974206504623626
0.9744932138790464
0.9747731375188712
0.9731868831513457
0.9764093746985566
0.9761504480832036
0.9760838305720173
0.9760983990088841
0.9760168687053828
0.9756485778402781
0.9749483244773572
0.9741055938825651
0.9733030869037606
0.9726783739083847
0.9722726664980618
0.9720379276960178
0.9718875177204765
0.9717501891999354
0.9715985759730837
0.9714206383376305
0.9712342720122075
0.9711002095330031
0.9710213556911447
0.9709799505363443
0.9709726638040724
0.9709836945409134
0.970974884581469
0.9709352432991435
0.9708834836953715
0.9708565959925749
0.9708958559640866
0.9710497090767466
0.9713236691319967
0.9716920638029022
0.9721035688027155
0.9725104820634615
0.9728790741254795
0.973191074546118
0.9734494947780804
0.9736679125969402
0.9738557379604681
0.974004541319402
0.9740990225446006
0.9741436039773499
0.9741475055101562
0.9741367442304431
0.9741411619207426
0.9741879706879687
0.974294844829966
0.9744605708772616
0.974681933314418
0.9748472844764217
0.9751304235290131
0.9741380125086162
0.9764450573319978
0.9760971974069694
0.9759639475651403
0.9760007978414774
0.9760642454414157
0.9759099354489236
0.9753464156169099
0.9745145566389327
0.9736392549651319
0.9729285808999492
0.9724952076257052
0.9723288840441634
0.9723034027935249
0.972293424843901
0.9722411185695686
0.9720758040507639
0.9717961324234186
0.9714891792076819
0.9712104934748573
0.9709865973544302
0.9707967628929716
0.9706091156814348
0.9703941991141859
0.9701490325317256
0.969910348110397
0.9697413080548835
0.9696810477079456
0.9698156358797138
0.9701407063499049
0.9706257704666601
0.9711981447531552
0.9717844295875022
0.9723285424011687
0.9727986597938362
0.9731938008372335
0.9735329329095055
0.9738273729179803
0.9740667384358795
0.9742307167943388
0.9743172155989995
0.9743497026133622
0.9743689977721021
0.9744053029863247
0.9744892092465222
0.9746401729229841
0.9748479275051021
0.9750956994163155
0.9752364008041904
0.975618214045378
0.9748348136308991
0.9764759997750169
0.9761294973658929
0.9759137758893728
0.9758874180888637
0.9759423616880113
0.9758861378144966
0.9754948878917002
0.9747426473963705
0.9738231973280945
0.9729791876815355
0.9724016612673745
0.9721591125442299
0.9721411734699142
0.9722261435255428
0.972298694812593
0.9722804737675125
0.9721586233738768
0.9719650246527565
0.9717768631507258
0.9716337102784053
0.9715083284136522
0.9713271584772433
0.9710509715270004
0.9706701982274911
0.9702108134809838
0.96975279082265
0.9693913559814528
0.9692265849610597
0.9692736345538072
0.9695796471867492
0.9700648893010201
0.9706460606913317
0.9712501395879738
0.9718299246567655
0.9723707938607717
0.9728773076449896
0.9733420041778015
0.973735485765851
0.9740250811440971
0.9742000145616544
0.9742944629151032
0.974345984609018
0.9743922138702018
0.9744815091160004
0.9746478053083859
0.9748838649652461
0.9751789972209143
0.9753676349016794
0.9757016568027501
0.9752935012036799
0.9764882071520431
0.9761749201510782
0.9759522417773205
0.9758584548262611
0.9758445913224524
0.9757711064217762
0.975465636553843
0.974854021864342
0.9740242265145791
0.9731756518640913
0.9725068052954654
0.972127064967665
0.9720100405849288
0.9720314404765571
0.9720995507370667
0.972106308345138
0.9720266367749328
0.9718822610702071
0.9717459634779448
0.9716703216897078
0.9716555437114047
0.971637908337367
0.9715365066196088
0.9712865062621364
0.9708868445419145
0.9704224023635194
0.9699898688462256
0.9696892692880874
0.96958249579905
0.9696975553414992
0.9699956095348042
0.9704027898676906
0.970851735493901
0.9712946218551788
0.9717154353045131
0.9721230242031252
0.9725268776659508
0.9729122723890903
0.9732469274935837
0.9735034970905089
0.9736787803149082
0.9737984340046449
0.9739013436713856
0.9740377237879102
0.9742588691004953
0.9745658478229204
0.9749619800196053
0.9752804542782715
0.975725756192717
0.9755655773770313
0.9764910454286919
0.9761849861054872
0.9759906477281514
0.9758949499504792
0.9758373982250623
0.9757040499365608
0.9753739490021609
0.9748089591750184
0.9740721946602245
0.9733055637001462
0.972663169870067
0.9722477959425878
0.9720628838515392
0.9720231545508563
0.9720348200741923
0.9720064183358343
0.9719102988336715
0.9717572214658161
0.9716114213786124
0.9715291957519807
0.9715248029863777
0.9715556330129845
0.9715348840677869
0.9713898301654854
0.9710815147137942
0.9706768200813501
0.9702793276686317
0.969986466773444
0.969872835236796
0.9699704041599867
0.9702624742924899
0.9706776413867735
0.9711339291582453
0.9715681223313679
0.9719509507166403
0.9722838291464222
0.9725751266574112
0.9728230040401146
0.9730140997205148
0.9731351418388313
0.973185891229026
0.9731888569699826
0.9731711708606142
0.973195201999329
0.9733598796432684
0.9736699886646699
0.9741254531508429
0.9745806705419117
0.9751590369486797
0.9753725398976704
0.9764986190210231
0.9761827395660689
0.9759995043952713
0.9759244250343687
0.9758721844459329
0.975720152943969
0.975349486743347
0.9747572644576405
0.9740285691374149
0.9733014069921069
0.9727110983696655
0.972331179935361
0.9721531248678676
0.9721022382307033
0.9720897171779515
0.9720331366293207
0.9719031773828974
0.9717196193998673
0.9715408593907883
0.9714305065142002
0.9714099799826376
0.9714507989600881
0.9714709924365821
0.9713858425036194
0.9711440000784418
0.9707742334892537
0.9703758325912515
0.9700591402901009
0.9699054184431155
0.969952139084112
0.9702154380140308
0.9706253968077945
0.9711126040962168
0.9716144976148046
0.9720886046957576
0.9725147936064112
0.9728834329648697
0.9731846887190977
0.9733996477218443
0.973500199716553
0.9734740025271673
0.9733464447581172
0.9731567611147786
0.9729703247217304
0.9728751212171938
0.9729228200352404
0.9732030847326364
0.9735933693776528
0.9741376073816386
0.9745756335811484
0.9765102668758419
0.976182083777239
0.9759985514929795
0.9759350749974681
0.9758954099267126
0.9757530243492223
0.9753743900045138
0.974763649442608
0.9740140094449565
0.9732741840003549
0.9726919217203593
0.9723318207159993
0.9721782721479888
0.9721462352678406
0.9721551940502861
0.9721155311766206
0.9719843600137977
0.9717744908355522
0.9715486543166458
0.9713883752349858
0.9713220744247498
0.9713342388754501
0.9713647068101301
0.9713302686572091
0.9711678312006248
0.9708719399785284
0.9705118322520259
0.9701910929650079
0.9699996819990632
0.9699912703986596
0.970180008804872
0.9705204555060609
0.9709514368585985
0.9714198723014399
0.9718926010536261
0.9723537442418858
0.9727923991746554
0.9731897146346375
0.9735184841592366
0.9737394499924139
0.9738134184319341
0.97374757889009
0.9735629943173196
0.9733136416016045
0.9730768592915827
0.9729210907728448
0.9729199761277018
0.9730656974752517
0.9733714059862957
0.9737325022007345
0.9765233415967023
0.9761838497152903
0.9759995985382336
0.9759430037712861
0.9759113327889588
0.9757767103359987
0.975397522619882
0.974784906297994
0.9740345087629266
0.9732874051806745
0.9726929596346742
0.9723186946600734
0.9721634251428005
0.9721331573704401
0.9721584998421082
0.9721518295781157
0.9720629479006143
0.9718785073197678
0.9716417456943842
0.9714314956471456
0.9713087613952042
0.9712551311259028
0.971239026966643
0.9712057004964811
0.9710917655413395
0.9708761014150934
0.9705949969569565
0.9703266443775896
0.9701519943824993
0.9701272372923465
0.970269654512241
0.9705512026786831
0.9709186256672732
0.9713221067745559
0.9717340277312445
0.9721483623132545
0.9725629718711502
0.9729649132444037
0.9733292475209928
0.973619233090446
0.9737936771583343
0.9738286788558107
0.9737430921295471
0.9735706025565192
0.9733639797547082
0.9731869081395293
0.9730985156026508
0.9731066485833656
0.9732255241536698
0.973390398268298
0.9765377067157304
0.9761865266624935
0.9760011560265845
0.9759504933972513
0.9759281243841608
0.9758026162310108
0.9754200535681758
0.9747983188957813
0.9740455694175865
0.9733075243927104
0.9727221695135356
0.9723428110955582
0.9721702114743639
0.9721194501501215
0.9721266287177854
0.9721252286752561
0.9720630066489856
0.9719281754217581
0.9717407774913156
0.9715465872845817
0.9713874836997194
0.9712769178790578
0.9711922042332843
0.971101544824426
0.9709683274836904
0.9707787088587693
0.9705573170377303
0.9703577201789354
0.9702401765336248
0.970247461814122
0.9703938344471236
0.9706562988317344
0.9709904044329429
0.9713508667041842
0.9717099806120428
0.9720634569974574
0.9724195353854523
0.9727794720843426
0.9731251530814861
0.9734233964550971
0.9736347332208345
0.9737271244455664
0.9736963410338587
0.9735799900611026
0.9734196690381799
0.9732730151205636
0.9731928995307495
0.9731899699985775
0.9732768720754931
0.9733779906116803
0.9765533093095423
0.9761905619480404
0.9760040800069698
0.975956325334829
0.9759427150444633
0.9758295630658578
0.9754507369100148
0.9748190296146128
0.9740510681633192
0.9733076194853683
0.9727345752801464
0.9723731633776439
0.9722063579415305
0.9721472169228569
0.9721282940605205
0.9720950038262632
0.9720164210287223
0.9718964707129959
0.9717566376349986
0.9716189918508218
0.9714939525441185
0.9713799640654153
0.9712538218791246
0.971099016696923
0.9709047229489591
0.9706807575028678
0.9704611594259945
0.970293943799325
0.9702245372348628
0.9702803339495457
0.9704633689662395
0.970744914565036
0.9710815293741726
0.971429749260746
0.9717613622806311
0.9720717801619488
0.9723732317953099
0.9726769336707464
0.9729784730985314
0.9732555638719805
0.9734731423113389
0.9735975352171241
0.9736138889068332
0.9735351436369267
0.9734039980741005
0.9732651607120346
0.9731731092951554
0.9731509365011751
0.9732154504758518
0.9733179881211503
0.9765695317651574
0.9761955667547225
0.9760090535431422
0.9759633458200974
0.9759556201254032
0.9758525717744451
0.9754823870455132
0.974849635364688
0.9740691258454
0.9733094136937128
0.9727308622591521
0.9723798861149523
0.9722306473763347
0.9721852794107256
0.9721680519028214
0.9721159060448448
0.972006318448512
0.9718542035136776
0.9717097357819403
0.9716026721674972
0.9715275774845753
0.9714598974516137
0.9713563490059751
0.97118399504417
0.9709404115907554
0.970658599932259
0.9703955047268034
0.9702095922608842
0.9701455893625566
0.9702283417710275
0.9704521190168408
0.970772337617175
0.9711383694412976
0.9715048577195246
0.9718411307925985
0.9721369166927543
0.9724010797130449
0.9726500607656509
0.9728920726616911
0.9731202464927861
0.9733141530150384
0.9734456062923729
0.973497229118069
0.9734694701453973
0.973384003114947
0.9732741030152015
0.9731824078327599
0.9731365220272717
0.9731549982953868
0.973221211745661
0.9765861240083888
0.9762000695256036
0.9760153075247046
0.9759720978141263
0.9759698329410901
0.9758740640975251
0.9755105195050511
0.974880674338525
0.9740963999339934
0.9733242974516618
0.9727327529707779
0.9723776500934097
0.9722341369067088
0.9722016688648745
0.972201036724844
0.9721569292984223
0.9720437237135386
0.9718659570356651
0.9716878914275818
0.9715614553021676
0.971494640005474
0.9714608747158137
0.9714029199562076
0.971266672130106
0.9710240489308151
0.970715924488311
0.9704115945493665
0.9701849600483741
0.9700855246073876
0.9701420832221214
0.9703761108127927
0.9707232602591149
0.9711251829380639
0.9715297550596766
0.9718987943717361
0.9722139299322291
0.9724754970127563
0.9726956300184709
0.9728872186390778
0.9730553121741824
0.9731950668266285
0.9732945747576135
0.9733435502196561
0.9733424997795062
0.9733041279565776
0.9732480013040967
0.9731983695328473
0.9731720014891282
0.9731771206481487
0.9732029840700505
0.9766031218328273
0.9762038623601024
0.9760221589349442
0.9759819830069074
0.9759858227137049
0.975897065487683
0.9755374777751173
0.9749081702279304
0.9741230662784734
0.9733457634120113
0.9727447852209193
0.9723822662481656
0.9722364143423317
0.9722049360599334
0.9722130921442919
0.9721836675349498
0.9720834898488646
0.9719046391130534
0.9717093295877373
0.9715538394032054
0.9714758419916077
0.9714348637710241
0.971389532559961
0.9712811641971164
0.9710720561809343
0.9707827184417426
0.9704746792981344
0.9702252047348838
0.9700946280050888
0.9701095838819032
0.9703103493310569
0.9706428354297069
0.9710519923534709
0.9714818509930863
0.9718884630063703
0.9722444052762256
0.9725377411684467
0.9727696579625779
0.9729468483426306
0.9730753692772864
0.9731596946210478
0.9732032262513384
0.9732105226141471
0.9731926893720457
0.9731654358848396
0.9731450843718628
0.9731448511132682
0.9731686972550866
0.973210333508677
0.9732418353686242
0.9766204988743675
0.9762071150673685
0.9760293684490521
0.9759930194866636
0.9760031380497931
0.9759217556334034
0.9755660317054868
0.974935070982435
0.9741470545740669
0.9733661628566355
0.9727598102478613
0.9723935504796752
0.9722458106495835
0.972212548536101
0.9722214418600442
0.9721977128053541
0.9721039613182969
0.9719319293264671
0.9717397284108802
0.9715776166974257
0.9714868318113906
0.9714311747979384
0.9713750723080292
0.9712647261668612
0.97106879113458
0.9708010148988574
0.9705147781398074
0.9702777196612171
0.9701456705713511
0.9701499961459586
0.9703126460302154
0.9706032495187128
0.9709785076645427
0.9713940903327926
0.9718104898492562
0.9721980891170354
0.9725366147817311
0.9728120354661025
0.973015479095567
0.9731436879578469
0.9732017861932648
0.9731970883111285
0.9731480135809928
0.9730823515577922
0.9730255520843297
0.9730029992206077
0.9730263014137788
0.9730918230770236
0.9731837636563462
0.9732565172000583
0.976637813234799
0.9762111971329169
0.9760389097727277
0.9760048901128775
0.9760206865826009
0.9759462731265527
0.9755955896189384
0.9749630490890974
0.9741707174089755
0.9733848937204014
0.972774099818297
0.9724055060654563
0.9722579046355895
0.972225892909345
0.9722362115600768
0.9722116613791866
0.9721181231098577
0.9719476238576917
0.9717580640691559
0.9715993378518326
0.9715063445232498
0.9714495082042309
0.9713886015864921
0.9712701923883454
0.9710611781420411
0.9707894374048107
0.9705104542551183
0.9702877491780575
0.9701725267954577
0.9701945500801152
0.9703624084050372
0.9706345388501015
0.9709714600035831
0.9713428799835812
0.9717273246832051
0.97210650817873
0.9724627504093822
0.9727775279427642
0.9730293254324348
0.9731963716497785
0.973267968739067
0.9732514601721354
0.9731685571884527
0.9730507128328493
0.9729381742274947
0.9728797426759777
0.972889001857576
0.9729639092977072
0.9730899250656051
0.9732126487204132
0.9766546169161051
0.9762197702780957
0.9760488610493679
0.9760170439636801
0.9760383011912279
0.9759702448252444
0.9756254263800647
0.974991890630757
0.9741952510444551
0.973403677931062
0.972787852167836
0.9724167478810348
0.9722693331619582
0.9722392559235427
0.9722529851517817
0.9722298889533745
0.9721376288345209
0.9719682425560329
0.9717740596908776
0.9716105784699548
0.9715173712155926
0.9714642302959143
0.9714107815701674
0.9712985279135816
0.9710835712286771
0.970795490662526
0.9704985554240807
0.9702678740561681
0.9701555759543939
0.9701938107105273
0.9703890971064946
0.9706819102653681
0.9710183048303632
0.9713628422835577
0.9717030872502986
0.9720397196441647
0.9723729770557847
0.9726919664509678
0.972972100696175
0.9731824056342668
0.9732975938282362
0.9733088185101385
0.9732282506207904
0.9730896943795748
0.9729381030756442
0.9728214176176122
0.9727841729413437
0.9728342443207478
0.9729639553157868
0.9731188822728624
0.9766729221785466
0.9762293228532728
0.9760593398907592
0.9760297250675348
0.9760560454274456
0.9759942297083551
0.9756553114711471
0.9750209191290252
0.9742199836796364
0.9734228471981943
0.97280205347633
0.9724283455850822
0.9722809220610295
0.9722519915872503
0.9722686544370847
0.9722487952722991
0.9721591061282079
0.9719903349525068
0.9717947179184154
0.9716239201783274
0.9715278248369874
0.9714717499260683
0.971421916622107
0.9713188085518984
0.9711152161934327
0.9708266430357712
0.9705147079540383
0.9702633223852241
0.9701356580400358
0.9701590381505734
0.9703679904135997
0.9706884971632944
0.9710534978352201
0.9714116192865053
0.9717389875578225
0.9720392731382524
0.9723289347849564
0.9726153336817945
0.9728862659205534
0.9731136057887468
0.9732649210979655
0.9733176545562243
0.973269045070524
0.9731450471395832
0.9729868073270743
0.9728419207612699
0.9727567219476346
0.9727583203479787
0.9728531688553924
0.9730066931069067
0.9766926489440967
0.9762392669259442
0.97607040245541
0.9760429756194717
0.9760740873852397
0.9760182110828751
0.9756852977743241
0.9750502664113182
0.9742449103160297
0.9734419184425086
0.9728162768083498
0.9724402651856089
0.9722932688126421
0.9722657971046954
0.9722847161462066
0.9722669130740819
0.9721790340024993
0.972010971016656
0.9718163388237979
0.9716439507658873
0.9715433463046053
0.9714820333059612
0.9714284551698917
0.9713255481187991
0.9711314146061282
0.970854444800981
0.9705466453276049
0.9702870390600199
0.9701426131097466
0.9701385303731259
0.970332489619283
0.9706571996337505
0.9710437222422984
0.9714306816294516
0.9717795902142065
0.9720797322159366
0.9723445274726283
0.972593467514604
0.9728315329359202
0.973042279419559
0.9731957836357351
0.9732693057105395
0.9732551620660651
0.9731646180577452
0.9730298509294378
0.9728934525129304
0.9727946555466568
0.9727625289814078
0.9728125691246416
0.9729330532870804
0.9767130346795537
0.9762497262121108
0.9760817481017624
0.9760568382646907
0.9760926107043522
0.9760422974828701
0.9757154078080195
0.9750799605273242
0.9742704553313366
0.9734613958496087
0.9728305323636406
0.9724521758071869
0.9723057732585024
0.972280534748459
0.9723022969061793
0.9722857027122563
0.9721983156200218
0.9720301029530198
0.9718351594256471
0.9716632252212762
0.9715617563429199
0.9714983182544267
0.9714414588058571
0.9713345539385496
0.9711386976679887
0.9708669378351056
0.9705675236340006
0.9703132055570368
0.9701667620027385
0.9701517649704158
0.9703233040678109
0.9706292379328089
0.9710100260533618
0.971408173470326
0.9717801962525525
0.9721045791760874
0.9723823397920455
0.9726239422678963
0.9728365271623788
0.9730148525591045
0.973142593949135
0.9732045450592162
0.9731965811541974
0.9731283234480091
0.9730249056729943
0.9729196621029328
0.9728430230893432
0.9728146231716398
0.9728443605415209
0.9729302449037854
0.9767338905214528
0.9762608017736278
0.9760935512532219
0.9760710458348724
0.976111264273432
0.976067528045884
0.9757456804977553
0.9751098460153373
0.9742966228950969
0.9734817425322203
0.9728451367014327
0.9724640514710918
0.9723179440108408
0.972295042926024
0.9723203801694591
0.9723058238058545
0.9722190371519271
0.9720499317548558
0.9718530044281155
0.9716794865678103
0.9715782849705046
0.9715159226950364
0.9714597864419996
0.9713521656505308
0.9711515845118727
0.9708761843144241
0.9705775079792504
0.9703286354798452
0.9701841811923603
0.9701711232625548
0.9703351634447267
0.9706267672866586
0.9709920264412193
0.9713808467053556
0.9717557685421496
0.9720949553992175
0.9723926017297674
0.9726501121164396
0.9728667073106422
0.9730337367728246
0.9731395010343225
0.9731782745234345
0.9731516642343847
0.9730740170518872
0.97297731374632
0.9728945706145998
0.9728495974381224
0.9728512639853861
0.9728956266194374
0.9729709832260163
0.9767549399554236
0.9762726475977392
0.9761056147830355
0.9760855755437448
0.9761301533340321
0.9760930642792015
0.9757760504773494
0.9751397702066298
0.974323000977882
0.9735028395356318
0.9728601789629322
0.9724762393065323
0.9723302091256494
0.972309368011386
0.9723382527334652
0.972326557203244
0.9722412081441018
0.9720721958916556
0.9718724651546745
0.9716960520043409
0.9715941914366198
0.9715323057360299
0.9714777663496607
0.9713730261532986
0.9711723706782747
0.9708926692970608
0.9705886233652794
0.9703361717671157
0.9701896772030494
0.9701789924134464
0.9703462157021925
0.9706384926198084
0.9709993015963706
0.9713785596709807
0.9717427556709857
0.9720757025477474
0.9723749362563098
0.9726405955263625
0.9728691076783199
0.9730482017339708
0.9731605844366641
0.9731956192616105
0.9731579252753104
0.9730629970611151
0.9729444547494496
0.9728508701649219
0.9728096118658159
0.9728304766010816
0.9729032081049761
0.9729981848582268
0.976776743810741
0.976284668597471
0.9761179748637492
0.9761003702434934
0.9761494263231213
0.9761185235566799
0.9758064444270416
0.9751697997566483
0.9743495767453966
0.9735244556849343
0.9728757436545307
0.972488722230465
0.972342708848383
0.9723238217204272
0.9723559455831747
0.9723470768148199
0.9722636010327274
0.9720949319038876
0.9718930702261133
0.9717143016823458
0.9716104615258268
0.9715481095339771
0.9714945220880498
0.9713923263032841
0.9711946458930077
0.9709140216611577
0.9706054629542037
0.9703467513269668
0.9701941016656251
0.9701784618515671
0.9703480954747001
0.9706466190721108
0.9710134731151679
0.9713943663474573
0.9717527905953054
0.9720730361440829
0.9723576422043044
0.9726150062292397
0.9728451005973274
0.9730352167449178
0.9731654711656471
0.9732189229774898
0.9731914041196754
0.973096221650253
0.9729640432828792
0.9728377604782228
0.9727664795346738
0.9727742084412715
0.972855783098219
0.9729752432513111
0.9767976898268668
0.9762970046069984
0.9761307074597984
0.9761157371627153
0.9761694261979144
0.9761440951917058
0.9758370256073045
0.9751998528021468
0.9743761723391386
0.9735465518693585
0.9728915714406946
0.9725016867785715
0.972355610389562
0.9723386541049792
0.9723739766919827
0.9723677018887025
0.9722857935100242
0.9721171705473702
0.9719135863026482
0.9717331796017742
0.9716285348444421
0.9715661286672286
0.9715124831448145
0.971411473351032
0.9712153261756848
0.9709343176413988
0.9706230462551074
0.9703603406119823
0.9702036910031628
0.9701830023210745
0.9703512275256355
0.9706509958179466
0.9710208893139801
0.9714052707228491
0.971765088147821
0.9720813188712534
0.9723557308185592
0.9726024206291227
0.9728272601471968
0.9730181494255346
0.9731570559073224
0.973226460551247
0.9732169026367725
0.9731337807342185
0.973001718673805
0.9728619804375693
0.9727574950263264
0.9727307369619786
0.972793320002579
0.9729201023748438
0.9768182162401324
0.9763090471417798
0.9761437203777121
0.9761314747499047
0.9761902481540967
0.976169493417598
0.9758679549649055
0.9752301307529737
0.9744027623628124
0.9735683424549524
0.9729073996799669
0.9725150860588412
0.9723689908267859
0.9723539082673361
0.9723924679421223
0.9723887487295467
0.9723081623793902
0.9721396474477202
0.9719343401786402
0.9717517065424726
0.9716466474601572
0.9715845481439856
0.9715316288963407
0.9714316398266813
0.9712352720094692
0.9709521133220674
0.9706381775978755
0.9703737717629264
0.9702173262423481
0.9701962606419957
0.9703634223983669
0.9706598529200297
0.9710247083370712
0.9714045751547012
0.9717628357597177
0.9720814031594703
0.9723609769317528
0.972610551913751
0.9728339243862596
0.9730221872875408
0.9731583648716376
0.9732252512785298
0.9732172654209286
0.9731413637871659
0.9730195094501617
0.9728844997437824
0.9727756912544626
0.9727306272181947
0.9727693661655507
0.9728854810055869
0.9768386184920186
0.9763211263852568
0.976156847295643
0.9761475009016544
0.9762118260954243
0.9761948080921639
0.9758989641157105
0.9752606136891402
0.9744295512191562
0.9735901073083819
0.972923280200836
0.9725288985730507
0.9723827239375421
0.9723694939973567
0.9724111693589554
0.97241004137065
0.9723306414660207
0.9721624950870534
0.9719558170708494
0.9717712488956228
0.9716653334979455
0.9716033765325877
0.9715508614901958
0.9714515458895384
0.9712551585300854
0.9709701783332101
0.9706538477825836
0.9703882175606285
0.9702334373274104
0.9702132387879793
0.9703791111816914
0.9706710461740442
0.9710284469553342
0.9714001365317472
0.9717535336320816
0.9720745675770475
0.9723642089273097
0.9726266265697922
0.9728595648472942
0.9730505402175484
0.9731796896163663
0.973231040772579
0.9732066087963963
0.973122132096453
0.973000936179702
0.9728771635408495
0.9727882940620601
0.9727590501665312
0.9727993961557051
0.972908215449928
0.9768593072773388
0.9763333225500971
0.9761698966641734
0.9761635774474563
0.9762337571204081
0.9762199208391048
0.9759298086813784
0.9752909442449953
0.9744561430450516
0.9736113549925113
0.9729394599599279
0.9725429690374084
0.9723967824182393
0.972385388256649
0.9724302118257323
0.9724316243794223
0.9723537111477584
0.9721860799273783
0.9719780357248656
0.9717921807721881
0.9716846232886993
0.9716218839197864
0.97156902760054
0.971469851867872
0.9712748533571866
0.9709908493369989
0.9706747517337134
0.9704077834404434
0.9702513556212387
0.9702284798402177
0.9703888428330927
0.9706761020392105
0.9710301381986628
0.9713998521169281
0.9717534028570867
0.9720777228065027
0.9723729846098629
0.9726431534422876
0.9728840494352867
0.9730784839527452
0.9732031583523333
0.9732425910320001
0.9732018218897536
0.9731039555240369
0.9729738607893614
0.9728537231810328
0.9727863948563714
0.9727855975366213
0.9728488301069205
0.9729658597361912
0.9768803949790402
0.9763454568743588
0.9761828868825285
0.9761800245888025
0.9762558590540084
0.9762448070968668
0.9759605666269767
0.9753213332184559
0.9744827934605935
0.9736325392558867
0.9729559283814851
0.9725570983707471
0.9724110562612205
0.9724014979738875
0.9724496681720628
0.972453778959032
0.972377748599512
0.972211743144796
0.9720012325408648
0.9718133407819615
0.9717039244045581
0.9716400627658029
0.9715865434334722
0.9714881724465695
0.9712961624970601
0.9710151689002228
0.9707009750057284
0.9704315211394491
0.9702672575152856
0.9702381090626617
0.9703899109155159
0.9706735535803587
0.9710300597904248
0.9714068354146738
0.9717690717576805
0.9720999020609773
0.9723958870281114
0.9726616517287943
0.9728969938468233
0.973085847703512
0.9732062207568961
0.9732434863697467
0.9732006845942369
0.9731025263398013
0.9729732383118348
0.9728555349253031
0.9727954647612412
0.972806778088303
0.9728849729039116
0.973011174343587
0.9769013532411738
0.9763576779087553
0.9761958855371269
0.9761964618130177
0.9762778276691261
0.9762695566067627
0.9759911507986883
0.9753517417542772
0.9745095519581036
0.9736539060057585
0.9729723239868755
0.9725711381159067
0.9724254183291156
0.9724178816778889
0.9724697069108696
0.9724764054379819
0.9724021151572018
0.9722360370154887
0.9720232534998696
0.9718329775667011
0.9717225765868782
0.9716582862447496
0.9716053371460306
0.9715099227342788
0.9713217918374892
0.9710423836118706
0.9707273086830971
0.9704517972415478
0.9702770577055495
0.9702418018080904
0.9703883312600399
0.9706728063980936
0.9710365593164056
0.9714246136460876
0.9717972537394286
0.9721330546047191
0.9724258037640556
0.9726794402080143
0.9728979964739809
0.9730738350457891
0.9731893354229827
0.9732309234568819
0.973200341381528
0.973115831940482
0.9730036344883606
0.9728968089956157
0.972832316331791
0.9728331157177141
0.9729023865448707
0.9730225163192822
0.9769222905758832
0.9763697561944599
0.9762090750256813
0.9762131954998815
0.9763000230179527
0.9762944071740262
0.9760214237198283
0.9753819107933031
0.9745360446944616
0.9736750127647077
0.9729884618875019
0.9725849145871137
0.972440179184119
0.9724350296490473
0.9724906055956455
0.9725000778579413
0.972426716491822
0.9722593864644365
0.9720434138793779
0.9718508853418508
0.9717417185252394
0.9716790684570666
0.9716287442606675
0.971537421394999
0.9713504652973171
0.9710674395170752
0.9707469481104885
0.9704627025793819
0.9702803071001439
0.9702419068563799
0.9703927818213023
0.9706859889376416
0.9710593119162479
0.9714542911701042
0.9718286066169237
0.9721604196777791
0.9724447787683985
0.9726865976848512
0.9728917310980203
0.9730570171488012
0.9731715356465978
0.9732241182820753
0.9732116472657808
0.9731454220485052
0.973048460587328
0.9729502114690485
0.9728815260779987
0.9728658060143933
0.9729127148435712
0.9730123562853319
0.9769427977839821
0.9763816470078527
0.9762222832519645
0.9762300564058031
0.9763221881676899
0.9763195147326004
0.976051375501073
0.9754117280376663
0.974562027777832
0.9736953501724321
0.9730044457766356
0.9725989406566086
0.9724558625738676
0.9724532671256244
0.9725119325410359
0.9725234564265938
0.9724499400418606
0.9722804582080211
0.9720622327541345
0.9718698100256181
0.9717638262950701
0.9717042813374615
0.9716581394657209
0.9715682832133518
0.9713769860738193
0.9710844183923775
0.9707545776184654
0.9704652862552775
0.9702850067218411
0.9702499371068597
0.970413441993635
0.9707172680895888
0.9710953079604988
0.9714870816101315
0.9718513534614142
0.9721700335304372
0.9724423530467697
0.9726766521980538
0.9728800764229848
0.973050306055655
0.9731750181510722
0.973240278815597