/*--------------------------------*- C++ -*----------------------------------*\
| =========                 |                                                 |
| \\      /  F ield         | OpenFOAM: The Open Source CFD Toolbox           |
|  \\    /   O peration     | Version:  v1912                                 |
|   \\  /    A nd           | Website:  www.openfoam.com                      |
|    \\/     M anipulation  |                                                 |
\*---------------------------------------------------------------------------*/
FoamFile
{
    version     2.0;
    format      ascii;
    class       volScalarField;
    location    "1000";
    object      rho_0;
}
// * * * * * * * * * * * * * * * * * * * * * * * * * * * * * * * * * * * * * //

dimensions      [1 -3 0 0 0 0 0];


internalField   nonuniform List<scalar> 
7500
(
0.9763902066774673
0.9760409707304153
0.9757579404095467
0.9754217761106554
0.9749812736859329
0.9744021596130414
0.9737302912468271
0.9730746201823078
0.9725466969689576
0.9721933377926777
0.9720227542011475
0.9719737961412098
0.9719854368409611
0.9720139096221138
0.9720213119380339
0.9720081557809828
0.9719839939163925
0.9719681779804406
0.9719590453611472
0.9719493862100693
0.9719384369358
0.9719223170850171
0.9718950607785438
0.9718570449871784
0.9718238542172634
0.9718221306138113
0.9718801886109538
0.9720167573359716
0.9722170375406589
0.9724633045858023
0.9727274746342895
0.9729751413632742
0.9731777288958865
0.9733246920410545
0.9734236140940481
0.9734933888869768
0.9735476008526576
0.9735916109689917
0.9736217953237352
0.9736330902795591
0.9736296074569462
0.9736285407609551
0.9736494967736965
0.9737128595496622
0.9738357263428977
0.974028341430818
0.9742958465126726
0.9745769670677529
0.9748494111772955
0.9732559613560533
0.9763164352482202
0.9760634440954807
0.9760128949418112
0.9760272269989185
0.9759251780023284
0.975514666722067
0.9747866049243364
0.9739396402157889
0.9731560284755011
0.9725643526257782
0.9721941339357304
0.9719862562504392
0.9718488871214073
0.9717156299145837
0.9715638792884994
0.9713846338875949
0.9712021695642173
0.9710785766072908
0.9710084783421813
0.9709758860832011
0.9709762226645178
0.9709907634076502
0.9709830499019798
0.9709460144600121
0.9709020315043984
0.970888969816153
0.9709482380179271
0.9711263226899891
0.9714218560191189
0.9718064216467883
0.9722252572947289
0.9726330802492732
0.9729977989458009
0.9733041929986329
0.9735574906737374
0.9737718774088899
0.9739554666366376
0.9740968922965757
0.9741866321641721
0.9742247535170087
0.9742255333948843
0.9742148481457781
0.9742226772774922
0.9742753924882749
0.9743885597791431
0.9745588055936638
0.97478094168233
0.974941380684635
0.9752150545073059
0.97421205311277
0.9763513291426719
0.9760055152885394
0.9758918382146874
0.9759383321340179
0.9759905131931389
0.9757946941179478
0.9751859335544878
0.9743349711212094
0.973471438890122
0.9727956281265285
0.9724067708599369
0.9722804123222273
0.9722719502094128
0.9722687238535908
0.9722136865075054
0.9720353680491801
0.9717517170459536
0.9714497838634871
0.9711813492294804
0.9709672299331277
0.9707829319142289
0.9705964973081846
0.9703806024455582
0.9701361491132934
0.9699064525341609
0.9697528042979418
0.969718382905266
0.9698873279963447
0.9702442073839528
0.9707546900726353
0.9713404139922693
0.9719304715980036
0.972471152475296
0.9729342015220986
0.973322244231497
0.9736553122662289
0.9739433011155877
0.9741736598069399
0.9743272502761465
0.9744042653783351
0.9744323949486016
0.9744514752582428
0.974491363949762
0.9745827410341731
0.9747424397243515
0.9749561740754205
0.9752055044559852
0.9753421206477033
0.9757128282966502
0.9749164926326046
0.9763848044758656
0.9760330836587301
0.9758357059799178
0.9758213748798672
0.9758742621580203
0.9757882298184857
0.9753471672863218
0.9745635607468398
0.9736431007039079
0.9728271299093401
0.9722955153453071
0.9720978811044371
0.9721118587030732
0.9722083913181493
0.9722801846474611
0.9722546797848036
0.9721227887120963
0.9719304559930999
0.9717505915559305
0.9716178685497768
0.9714956871512006
0.9713095803294024
0.971025627016078
0.9706363855023155
0.9701773233357405
0.9697318713604423
0.9693968095973364
0.9692664542609508
0.9693534821209507
0.9696954113946028
0.9702035435468914
0.9707963765884733
0.9714025807960405
0.9719789048114842
0.97251474703797
0.9730159230255366
0.9734736458381132
0.9738563403103724
0.9741317655322852
0.9742949016290466
0.9743824997207068
0.9744316205535413
0.9744807941777552
0.9745787964422209
0.9747561585319363
0.9750016073246444
0.9753012194509114
0.9754875286501546
0.9758108408449652
0.9753867411095168
0.9763979993980931
0.9760785669669078
0.9758684927356993
0.9757872451249895
0.97577258011519
0.9756765360521918
0.9753320536207686
0.9746862307313642
0.9738455831288935
0.9730139416314236
0.9723863157287549
0.9720537489637874
0.9719702699654185
0.972012299231966
0.9720833020894843
0.9720842729807103
0.9719967080790253
0.9718529073136175
0.9717251526470453
0.9716619113478517
0.9716550878086224
0.9716354989549569
0.9715237448954482
0.9712556986411154
0.9708477735538003
0.9703889702346669
0.9699758900930447
0.9697074309542165
0.9696392927707338
0.9697917038739141
0.9701176439647875
0.9705410952368896
0.9709957982565567
0.9714379576520989
0.9718556642465178
0.9722597992408896
0.9726592159925211
0.9730369381777548
0.9733602471581162
0.9736045303981452
0.9737702127601086
0.9738854493396093
0.9739906639977055
0.9741366777159172
0.974372428551582
0.974693039594866
0.9750979335004996
0.9754174005901274
0.9758533498775545
0.9756754537931467
0.9764004935845174
0.9760892998879297
0.9759058441981905
0.9758199265965081
0.9757605246390892
0.9756057943563258
0.9752437088693731
0.9746495662730434
0.973901666707787
0.9731475195760277
0.9725376288673583
0.9721649240555436
0.9720152962376226
0.9719967195674156
0.9720142405361133
0.9719818949462934
0.9718798364350464
0.9717274542697726
0.9715905352160787
0.9715220222848592
0.9715291498539932
0.971563686465157
0.9715337200705112
0.9713709527642291
0.9710484254013009
0.9706431068573612
0.9702601793893532
0.9699958023478636
0.9699187360939842
0.9700541751486103
0.9703770737557481
0.9708112960134734
0.9712753495296051
0.9717092217466681
0.9720879907103795
0.9724157701397471
0.9727010611947864
0.9729405829104646
0.973120357027796
0.9732287116146114
0.9732683371201981
0.9732649840224165
0.9732480777377103
0.9732826912834625
0.9734670358482699
0.9737967998171846
0.9742677328194848
0.974730657452975
0.9753058556055808
0.9755043337076502
0.9764072934745387
0.9760865874374356
0.9759158231560191
0.9758494213052433
0.9757937317547762
0.9756178954663396
0.9752163127837847
0.9745984794137119
0.973861567220995
0.9731482259457227
0.9725891958403654
0.9722475918191307
0.9721025960409055
0.9720719258737919
0.97206515314327
0.9720042857795861
0.9718696123793614
0.9716851241641821
0.9715150570215361
0.9714195970639125
0.9714136042581567
0.9714626560685912
0.9714775396429705
0.9713781108692787
0.9711189312717111
0.9707433041965685
0.9703547634398539
0.9700623203290741
0.969941499784542
0.9700264455049078
0.9703228799442044
0.9707553356284492
0.9712543423019293
0.9717594049680764
0.9722315221060208
0.9726530019048746
0.9730147092228862
0.9733064856135691
0.9735082157142263
0.9735924049517669
0.9735501671181913
0.9734113898889155
0.9732177716333726
0.9730382795210056
0.972958049206275
0.9730310437502093
0.9733343366059207
0.9737407906616027
0.9742910757771024
0.9747226762946056
0.9764173717211134
0.9760847614628066
0.9759150304934729
0.9758601380980059
0.9758161723285951
0.9756489119784155
0.975238584457007
0.9746031962230611
0.9738465674844886
0.9731225022421565
0.972569797079147
0.972248220708692
0.9721270942417154
0.9721154479342959
0.9721307169451545
0.9720867205296836
0.9719480103176457
0.9717346388839413
0.9715161126499615
0.9713707942693034
0.9713191924940929
0.9713434234072468
0.9713740890959126
0.9713299048543155
0.9711534750728212
0.9708485309866937
0.9704929468046718
0.9701909748207631
0.9700292438706055
0.9700555065538985
0.9702768423750294
0.9706412014643973
0.9710865088451697
0.9715614206013723
0.9720357566220624
0.9724958185654722
0.972930464682487
0.9733204988126152
0.9736373646333701
0.9738413767658448
0.9738960248012128
0.9738150337662748
0.9736205603720149
0.9733707205362692
0.9731438368046389
0.9730076095964921
0.9730293766489542
0.9731957987251393
0.9735147104366485
0.9738784852827661
0.9764285261528098
0.9760849988653783
0.9759164130361598
0.9758682360832956
0.975831818763182
0.9756718334435993
0.9752601942068149
0.9746233370323119
0.9738666791292379
0.9731355794344415
0.9725675455596068
0.9722324721288483
0.9721107050375115
0.9721013443637915
0.9721353590803754
0.9721257142928553
0.9720303130740381
0.9718378204853226
0.9716046829245675
0.971406049836012
0.9712977655410725
0.9712557939066619
0.9712445066871286
0.9712073049101028
0.9710846590585092
0.9708619045425714
0.9705833558382534
0.9703300102799729
0.9701802612099139
0.9701859681145411
0.9703578997778604
0.9706624266085834
0.9710443491098019
0.9714552635582636
0.9718705478292849
0.9722863143859537
0.9727003066245938
0.9730985787761504
0.9734546258808242
0.9737307659287449
0.9738873394122807
0.9739043598609461
0.9738075550326832
0.9736285464125495
0.9734262249140626
0.9732628903348773
0.9731932535457912
0.9732203746816405
0.9733537716628415
0.9735254463545531
0.9764404018680612
0.9760854463151414
0.9759169644725556
0.9758751919027003
0.9758479093194358
0.975696958158498
0.9752806994019503
0.9746350561023119
0.9738769756785807
0.9731553901157957
0.9725959427932093
0.9722543391472876
0.9721157701769977
0.9720836952922018
0.9721016055691633
0.9720994354801406
0.9720310934134518
0.9718932582936605
0.9717052313812024
0.9715183034809239
0.9713693737586684
0.9712686168924413
0.9711886143700307
0.9710975677653015
0.9709609056611673
0.9707690520173043
0.9705525297427545
0.9703674443897349
0.970272322970779
0.9703066301432286
0.9704790268567037
0.97076192780635
0.9711089999895982
0.9714760481327026
0.9718380408512185
0.9721933012944455
0.9725505536661583
0.9729099328513634
0.9732509097014466
0.9735392646676364
0.9737357130376185
0.9738111392139563
0.973767208299666
0.9736430839635211
0.9734830839112595
0.9733456687672192
0.973280595248499
0.9732941979985476
0.9733949913919475
0.9735037507853708
0.9764533053561368
0.9760874668603462
0.9759189383689525
0.9758804653800608
0.9758620009315667
0.9757239356428119
0.9753092399317435
0.9746533354938236
0.9738802498605852
0.9731546492271277
0.9726077895879814
0.9722843622411749
0.9721500195630508
0.9721091011967392
0.9720991757680073
0.9720657406370964
0.9719836722722749
0.9718634005137229
0.971726011635819
0.971593961853959
0.9714755091598442
0.9713666220692649
0.971242422159635
0.9710862199015308
0.9708905729715166
0.9706684203566996
0.9704577314461962
0.9703074357446336
0.9702613600164848
0.9703432260637688
0.9705502646238212
0.9708499093241364
0.971197380565095
0.9715502301842345
0.9718829226511856
0.97219371086443
0.9724958926394526
0.9728001446662814
0.9730997474521715
0.9733706593696549
0.973577285842805
0.9736876361561678
0.9736905522080304
0.9736038590807852
0.9734702649099243
0.9733367796449199
0.9732562420767208
0.9732481432853872
0.9733256812282165
0.9734366092748259
0.9764664253642971
0.9760901807782788
0.9759224448676977
0.9758866650108458
0.9758749757551183
0.9757468339421322
0.9753393467823808
0.9746818172609518
0.973895586870582
0.9731542990503464
0.9726029908350785
0.972291563047545
0.9721736305376438
0.9721467435727844
0.9721362423513655
0.9720827436465097
0.9719692920680792
0.9718185788079348
0.9716798201429576
0.9715810923281868
0.9715126109419989
0.9714481191305007
0.9713426946995882
0.9711651114681457
0.9709183889467464
0.97063914183707
0.970387540757227
0.9702214716922362
0.9701827170780551
0.9702940836259116
0.970542330029872
0.970879881147515
0.9712554399485892
0.9716248971490694
0.9719601378975391
0.9722537414273041
0.9725163609924469
0.9727646979619834
0.9730053973690959
0.9732298544875991
0.9734166125334686
0.9735380308181901
0.9735791275992436
0.9735436041072043
0.9734549246452925
0.973347658819649
0.9732638593021015
0.9732286900144799
0.9732578829539942
0.9733320944986841
0.9764796828910197
0.976092206570447
0.9759271289337236
0.975894321510092
0.9758890148371721
0.9757673797299693
0.9753658658866271
0.97471089766249
0.9739203160371807
0.9731662531335548
0.9726028059995031
0.972288364945932
0.9721763139752744
0.9721629243404267
0.9721683861984951
0.9721225671701142
0.9720034499184297
0.9718258865336448
0.9716545849366204
0.9715391774911497
0.971481081154504
0.9714516305695432
0.9713921985252202
0.971246866962986
0.9709981224844899
0.9706906431313752
0.9703974819008935
0.9701921054981114
0.9701159914189434
0.970206765201082
0.9704672830338618
0.9708330101594762
0.9712450390744278
0.9716523694223895
0.972019222044088
0.9723300214617411
0.9725871860837263
0.9728038377999567
0.9729923564300105
0.9731567052714812
0.9732912107102424
0.9733840036123169
0.9734260970515234
0.973420024971701
0.9733799430074359
0.9733260825859427
0.9732822029636989
0.973263362790688
0.9732757373133796
0.9733073177194024
0.9764930980520664
0.9760933437597312
0.9759321594251268
0.9759031162134609
0.9759049311943113
0.9757892922664908
0.9753908675112762
0.9747363397704566
0.9739448138347433
0.9731852367293443
0.9726125380063851
0.9722911181325807
0.9721771148997437
0.9721652433881035
0.9721801865455642
0.9721484675739535
0.9720419175350282
0.9718616510029511
0.9716723350162405
0.9715289296644868
0.9714602018241577
0.97142507229367
0.9713792260154988
0.9712632958174382
0.9710464132955543
0.9707557183017111
0.9704567713652522
0.9702271069791958
0.9701204658153127
0.9701684016494234
0.9703976016771253
0.97075080721079
0.9711722308354448
0.9716065731849717
0.972011893434113
0.9723631487266884
0.9726503669923372
0.972875992390317
0.9730470473454618
0.9731694721016274
0.9732477478047051
0.9732855745752294
0.9732884740031335
0.9732687661427151
0.9732428072295415
0.9732267690254488
0.9732327607192803
0.9732630211508876
0.9733094388228219
0.9733437821621521
0.9765067258547748
0.9760938198681199
0.9759374530672931
0.9759129112688616
0.9759218747663413
0.9758126975938936
0.9754170055584838
0.9747606778552755
0.9739664100688536
0.9732032621816904
0.9726254001599268
0.9723004135827349
0.972184669589336
0.9721711386804807
0.9721872218249851
0.9721611360746379
0.972061452059451
0.9718872842134576
0.9717003934924255
0.971549841826359
0.9714690155007361
0.9714193564942458
0.9713632715175694
0.9712463890714391
0.9710432090158818
0.9707740479129023
0.9704960951820529
0.9702773924616974
0.9701701605282537
0.9702037379220594
0.9703941243885941
0.9707058327676636
0.9710947561484619
0.9715171111832124
0.9719347413213345
0.9723195890286954
0.9726526800113701
0.9729207436792648
0.973115516158872
0.9732344446650757
0.97328372332129
0.9732716824971962
0.9732182817841845
0.9731523746507382
0.9730995901440126
0.9730844686628957
0.9731164261505595
0.9731896072778211
0.9732861424758276
0.9733601493229289
0.9765201333670558
0.9760950905518493
0.9759449390411505
0.9759233366456643
0.9759390162731266
0.9758361183096613
0.9754441583761293
0.9747857934752771
0.9739873393655925
0.9732195024304889
0.9726374960987626
0.972310516310177
0.9721949115091969
0.9721826365936133
0.9722002061707654
0.9721731147630264
0.9720738196906358
0.971901141794885
0.9717166724638696
0.9715694491709015
0.9714867502105368
0.9714361571912222
0.9713752380125548
0.9712496072388631
0.9710334595290099
0.9707609303998114
0.970490822956073
0.9702866788461461
0.9701965305876638
0.9702472629524267
0.9704412283658254
0.9707325272108495
0.9710819145710246
0.9714603989904109
0.9718479391088982
0.9722271464717045
0.9725805818782162
0.9728896096350931
0.9731325964362709
0.9732883977254426
0.9733481351350011
0.9733213309060481
0.9732318945725837
0.9731126969973739
0.9730050558738474
0.9729564620008155
0.9729772064159062
0.9730624836417023
0.9731951904330184
0.9733197098279734
0.9765329181800453
0.9761008034326558
0.9759525208185851
0.9759335961144225
0.9759552120374563
0.9758596035940904
0.975471713893706
0.9748115859357643
0.9740088461481513
0.9732355912013927
0.9726489689929407
0.9723199733379989
0.9722045573139528
0.972194252447824
0.9722153009771943
0.9721893445903425
0.9720910493857967
0.9719174354890996
0.9717295149144555
0.9715781249929776
0.9714958877261233
0.971449697900048
0.9713963893428598
0.9712764701917098
0.9710533186485282
0.9707638151713439
0.9704759888540281
0.9702650488026889
0.9701778700377647
0.9702466273810614
0.9704683294688398
0.9707789681167478
0.9711255286751037
0.9714749957805208
0.9718175555767541
0.9721553601112923
0.972488375063859
0.9728045367831821
0.9730780057534327
0.9732777050662942
0.9733799078734772
0.9733782743680465
0.973288324616542
0.9731461109732481
0.9729974571881344
0.9728900447940551
0.97286635527976
0.9729295291536617
0.9730690374132408
0.9732279372842724
0.9765471582418367
0.9761073428813961
0.9759606047568111
0.9759442106569175
0.9759711263686642
0.9758830580288426
0.9754994024788519
0.9748374230067566
0.9740302993304401
0.9732518653799362
0.9726605677486952
0.9723296498834084
0.9722142347766088
0.972205141502084
0.9722292643275885
0.9722065840741344
0.9721108949979459
0.9719384024681338
0.9717468845638186
0.9715885889888657
0.9715039470176475
0.9714554997343239
0.9714061842234923
0.9712966138168586
0.9710836845754678
0.9707924558048291
0.970488609797588
0.9702570334944037
0.9701535151923556
0.9702104910922443
0.9704476368230696
0.9707866257390578
0.9711609646663965
0.9715218703550802
0.9718490382240161
0.9721489982234647
0.9724387251063428
0.9727242880475503
0.9729913222557333
0.9732104753677943
0.973349920999877
0.9733893721148976
0.9733291487242808
0.9731998575642135
0.9730418351717175
0.9729040780114445
0.9728312126391759
0.9728468482400586
0.9729537842970294
0.9731140986707827
0.9765628103555513
0.9761141347089999
0.9759691813026669
0.9759552027205638
0.9759870883255765
0.975906423411834
0.9755271938831772
0.974863508467681
0.974051708677489
0.9732679574865727
0.9726723687742084
0.9723397487749689
0.9722247357950508
0.9722171298735104
0.9722435261500886
0.972222888253483
0.9721293306933189
0.9719586365913607
0.9717657067911781
0.9716055840526309
0.9715165920787632
0.971463087461188
0.9714105928653343
0.9713020811401445
0.9710991269938013
0.9708190055125948
0.9705181800418041
0.9702771139714764
0.9701565405175373
0.9701860051840905
0.9704099372818255
0.9707550466137839
0.9711520856660504
0.9715416423000098
0.9718887388360955
0.972186226365473
0.972449247624539
0.9726970351814513
0.9729324434020433
0.9731370848072237
0.9732806632562023
0.9733425505056691
0.9733174458191729
0.9732198473707415
0.9730842581975832
0.9729528390783345
0.9728640124352945
0.9728444078384668
0.9729064358693335
0.9730351410075233
0.9765790678465874
0.976121386658012
0.9759780187358016
0.9759667938304939
0.9760035248187948
0.9759298894902342
0.9755552543691334
0.9748899544871727
0.974073476313305
0.9732841652703031
0.9726839921981176
0.9723497151326633
0.9722353209543954
0.9722299868099671
0.9722590655996171
0.9722393385653003
0.9721465028372595
0.9719752013961496
0.9717824489578295
0.971622376018636
0.9715323745737022
0.971476830870778
0.9714211783309181
0.9713089738727129
0.9711048722217627
0.9708302554351496
0.9705376243357533
0.9703011477137498
0.9701781396740132
0.9701950068948559
0.9703967765383905
0.970724308007475
0.9711172392659724
0.9715193440259779
0.9718899408514001
0.9722108588498644
0.9724851353992725
0.9727237955577748
0.9729327312127319
0.9731051429506942
0.9732241993312686
0.9732761817917965
0.9732588865366354
0.9731845502998653
0.97308023049856
0.9729793405455318
0.9729111012689489
0.972893018925832
0.9729327134594151
0.9730260062694345
0.9765956929694216
0.9761291824492767
0.9759870764412049
0.975978547178257
0.9760200386667545
0.9759534744915915
0.975583276857971
0.9749165547078552
0.9740956525027723
0.9733008596339637
0.9726959560307571
0.9723595264655879
0.9722455944936319
0.9722427733061495
0.9722753000879192
0.9722573398918586
0.9721647528936326
0.9719924591201039
0.9717981963290047
0.9716364694319395
0.9715465592790037
0.9714922053123453
0.9714373060892203
0.9713241785768335
0.9711153030865178
0.9708373678380544
0.9705458094587854
0.9703148550811037
0.9701936021724971
0.9702114877216261
0.9704052618784215
0.9707184265726462
0.9710963946992461
0.9714902265503942
0.9718648438678966
0.9722011944222855
0.972495123961143
0.9727487335962084
0.972960402146874
0.9731204826328589
0.9732171950194854
0.9732463618888582
0.9732111773236625
0.9731284853661329
0.9730320544594763
0.9729546718962147
0.9729183108959751
0.9729293773891321
0.9729817829053041
0.973062629578062
0.9766124436669387
0.97613787143092
0.9759965468455738
0.9759907002434569
0.9760367875664333
0.9759771569256704
0.9756113345844193
0.9749431931008032
0.9741178899341343
0.973317621186603
0.9727086036605691
0.9723695211621907
0.9722558737723844
0.9722553428577366
0.9722913401860067
0.9722759035323093
0.9721840899891643
0.9720108287360882
0.9718154952007646
0.9716504838151245
0.9715601381248362
0.971506420360958
0.9714532331403671
0.97134300143841
0.9711335085839257
0.970851150533228
0.9705543199822538
0.9703200046739195
0.9701970217859853
0.9702171897950096
0.9704141247025326
0.9707277133657072
0.9711009634829015
0.9714851793286852
0.9718493828376643
0.9721800974614646
0.972476219032551
0.9727383301171694
0.9729619170804873
0.9731337430751732
0.973236461931701
0.9732611288483832
0.9732142534667926
0.973113856185672
0.9729956409787053
0.9729084047986335
0.9728771879017055
0.9729085815451288
0.9729895449371746
0.9730891462376401
0.9766298511880201
0.9761466574415962
0.976006277097014
0.9760032442743553
0.9760537927253116
0.9760006588132454
0.9756393923740586
0.9749700150902179
0.9741403726179624
0.9733345870928745
0.9727217050561454
0.9723797444431314
0.972266357547361
0.9722681148919038
0.9723073954840421
0.97229462925015
0.9722041893472845
0.972030649020782
0.9718321747878299
0.9716652847471307
0.9715737711996036
0.9715194776585862
0.9714675862436299
0.971360170488726
0.9711533189259042
0.9708697518011691
0.9705682140798463
0.9703275807805929
0.9701988068798478
0.9702143774952737
0.9704141728923125
0.9707341344354187
0.9711132235606413
0.9714986302244983
0.9718565820923687
0.9721743684364742
0.9724561481595267
0.9727107516527161
0.9729368056149275
0.9731203228220429
0.9732411600135273
0.9732838337955745
0.9732460942675827
0.9731441085520708
0.9730108882692563
0.9728899099167673
0.9728297164224134
0.9728498376321328
0.9729416883119222
0.9730670159662634
0.9766462945625116
0.9761559149930696
0.9760165141205266
0.9760165642849734
0.9760715488465417
0.9760242714620929
0.9756676146271236
0.9749969702595089
0.9741630328351845
0.9733518633513434
0.9727350741889205
0.972390194334778
0.9722770705055876
0.9722811404747227
0.9723237004006862
0.9723134488374453
0.9722243799511496
0.9720504383610221
0.9718498721700002
0.9716811713085868
0.971589036684957
0.971534468099947
0.971482940622209
0.9713769822290388
0.9711714980004823
0.9708873789352177
0.9705829679354692
0.9703382667556916
0.9702056519148599
0.9702164289257108
0.9704151202530666
0.9707365181660024
0.9711187025629939
0.9715074998558557
0.9718665793520117
0.9721799680342953
0.9724514191792163
0.9726956545391059
0.9729170938867556
0.9731020552929359
0.9732321525066034
0.9732910424987165
0.9732709126564977
0.9731798342598924
0.9730456723273163
0.9729096337085253
0.9728150001548139
0.9728014990404854
0.9728765008117432
0.9730115426494508
0.9766621600792746
0.9761648577471879
0.9760269969187824
0.9760303745670708
0.9760902441209792
0.9760478135576401
0.9756961548560107
0.975024276344916
0.9741860541508099
0.9733695655814264
0.972747742800483
0.9724007203946347
0.9722880574499707
0.972294423624344
0.9723403356851661
0.9723326259134772
0.9722447084921352
0.9720698488007454
0.9718677863907645
0.9716971582087068
0.9716048328797762
0.9715509839079056
0.9714998882122396
0.9713947925497128
0.9711888154718639
0.9709024360150396
0.9705953649397359
0.9703490988877399
0.9702166736964034
0.970227264728911
0.9704248114641242
0.9707427657984772
0.9711199051492831
0.9715043740406705
0.9718622458701996
0.9721782434467449
0.9724550430095807
0.9727020023601753
0.9729217752156849
0.9731040370828182
0.9732313970306444
0.9732878981043502
0.9732697318978074
0.9731862523337509
0.9730617661278077
0.9729298024692496
0.9728297707471929
0.9727971935356575
0.9728487157668723
0.9729745616183743
0.9766779168457469
0.976173802410484
0.9760375505434169
0.9760445539492812
0.9761097100435951
0.9760712490303446
0.9757247080013963
0.9750518811752222
0.9742095356528031
0.9733876892761411
0.9727603575068088
0.9724115313908208
0.972299311248766
0.9723079170242837
0.9723570566286338
0.9723519343832747
0.9722653386180163
0.9720904566258977
0.9718871988521851
0.9717141774767787
0.971621126121985
0.9715670268308478
0.9715166818089123
0.9714122606330255
0.9712061169441178
0.970917832919956
0.9706083777818253
0.9703610720050252
0.9702302629148762
0.9702417506444171
0.9704378338870902
0.9707511270948119
0.97112075767557
0.9714972629866493
0.9718508226466249
0.9721699157118305
0.9724573292621329
0.9727171132890217
0.9729459688597493
0.9731301645843632
0.9732496591023538
0.9732901802315511
0.9732559093185369
0.9731647942597924
0.9730417484139906
0.9729218788254848
0.9728419944103763
0.9728243601853725
0.9728763249829773
0.9729942540769526
0.9766938470483076
0.9761826492402744
0.9760480139032859
0.9760588724246864
0.9761296651060987
0.9760945796544314
0.9757530558772124
0.9750793495791176
0.9742329399775524
0.9734055939738969
0.972773128722455
0.9724225668566921
0.9723108263862201
0.972321596523506
0.9723739987285439
0.9723714493859347
0.9722864110955308
0.9721125066101474
0.9719078230750076
0.9717324963378069
0.9716378897921069
0.9715830175355296
0.9715323118057158
0.9714281191459175
0.9712233721389533
0.9709359819990482
0.9706266346713549
0.9703779069050888
0.97024564266665
0.9702539635937727
0.9704446598392747
0.9707535274151197
0.971120041569254
0.9714948258453855
0.9718488365721369
0.9721714741857331
0.9724646970141547
0.9727322564512033
0.9729688293535074
0.9731558763732349
0.9732701794437481
0.9732982741202155
0.9732477043048332
0.9731438519902225
0.9730128073845838
0.9728978932856099
0.9728407309130528
0.9728514152610803
0.9729251147125333
0.9730496227630404
0.976710392615023
0.9761912434238316
0.9760581149990913
0.9760733750217815
0.9761496766928953
0.9761176280112093
0.9757812625159114
0.9751068220246274
0.9742563398162423
0.9734234097565553
0.9727862641407445
0.9724338139094696
0.9723225940487371
0.9723354916683541
0.9723912669331769
0.9723911842555084
0.9723077068850573
0.9721340358959775
0.9719285563458595
0.9717509080914668
0.9716545688097532
0.9715986833355424
0.971547389223648
0.9714441211072906
0.9712423659435653
0.970957875861521
0.9706501349233706
0.9703984507738751
0.9702588704335713
0.9702602822448725
0.9704428101846018
0.9707487348238099
0.9711183102364794
0.9715004698247564
0.9718631026110121
0.972191901771656
0.9724852809117509
0.9727480628281329
0.9729790267422448
0.9731606087709335
0.9732707998413486
0.9732969463399849
0.9732445306597358
0.973140710960975
0.9730107763812386
0.9728986068339086
0.972849082637718
0.9728720310011911
0.972960313770206
0.9730929997118034
0.9767269306948844
0.9762002057707579
0.9760684342533386
0.9760880084428538
0.9761698228574679
0.9761406805304794
0.9758094277058219
0.9751343101119396
0.9742796661999644
0.9734411363734619
0.9727997642948624
0.9724451862161554
0.972334511700567
0.972349723733968
0.9724092115787756
0.9724116599968193
0.9723298161727355
0.9721557755690525
0.971948228580943
0.9717679501670407
0.9716707001959383
0.9716146773978243
0.9715639859150352
0.9714637337471425
0.9712654938626688
0.9709823904596727
0.9706734175485131
0.9704151397977625
0.9702656838049031
0.9702611732271289
0.9704388559433544
0.9707462771175339
0.9711236116968032
0.9715171579723817
0.9718898275347922
0.9722228860377967
0.9725121957108748
0.9727622134115275
0.972976386313942
0.973145628770557
0.9732520762529848
0.9732833742628679
0.9732437702864312
0.9731537246094666
0.9730407364211108
0.9729385695078764
0.9728834186434421
0.9728954469848135
0.9729748246264611
0.9731015026394491
0.9767436643487862
0.9762087567954828
0.9760785456348896
0.9761026101151362
0.9761900703669514
0.9761638320735048
0.975837498145915
0.9751616382637582
0.9743026184081487
0.9734584007429888
0.9728130801466016
0.9724565447914598
0.9723469638541354
0.9723648683012047
0.9724283969592642
0.9724327754570866
0.9723521889710044
0.9721765960653751
0.9719659231084351
0.9717835405861827
0.9716875523548204
0.9716334289626192
0.9715853901188097
0.9714891697500501
0.9712912231824196
0.9710043309402064
0.9706898184570136
0.970422680704926
0.9702661684787203
0.970259113244291
0.9704418094234832
0.9707581941442421
0.9711450191175768
0.9715450878961589
0.9719188528585728
0.9722473952503045
0.9725278912725708
0.9727659194846224
0.9729668566483197
0.9731263231451459
0.9732329921653645
0.973276340687335
0.9732552903267677
0.9731833284273969
0.9730849739703118
0.9729902687038761
0.9729294665375094
0.972923967772393
0.9729807700354294
0.9730874606830791
0.9767601446226634
0.9762177709428304
0.9760892455857365
0.9761175164367568
0.9762102237750897
0.9761871913676886
0.9758655481159288
0.9751886924702549
0.9743250362755482
0.9734750670812786
0.9728258025376659
0.9724681727800429
0.9723602469025669
0.9723810370211202
0.9724476630459455
0.9724543072124993
0.9723729603574335
0.9721954996251123
0.9719823605897974
0.9718004599298349
0.9717075440393425
0.9716566859940537
0.9716125864806039
0.9715176875002614
0.9713144670690581
0.9710179139527075
0.9706943864166543
0.9704228573055891
0.9702686811318433
0.9702657622449447
0.9704613605615118
0.9707879559406853
0.9711788335664983
0.9715749875268536
0.9719382478586591
0.972253643041404
0.9725223992756822
0.9727535362943319
0.9729534237556443
0.9731185144443182
0.9732359245382053
0.9732922041525448