/*--------------------------------*- C++ -*----------------------------------*\
| =========                 |                                                 |
| \\      /  F ield         | OpenFOAM: The Open Source CFD Toolbox           |
|  \\    /   O peration     | Version:  v1912                                 |
|   \\  /    A nd           | Website:  www.openfoam.com                      |
|    \\/     M anipulation  |                                                 |
\*---------------------------------------------------------------------------*/
FoamFile
{
    version     2.0;
    format      ascii;
    class       volScalarField;
    location    "1000";
    object      T;
}
// * * * * * * * * * * * * * * * * * * * * * * * * * * * * * * * * * * * * * //

dimensions      [0 0 0 1 0 0 0];


internalField   nonuniform List<scalar> 
7500
(
288.1964185808031
288.2839145308606
288.3652105320913
288.455466292373
288.572597975522
288.7298957203004
288.9193774919039
289.1070376774044
289.2633186850797
289.3681027802041
289.415822640156
289.4204367216823
289.4033767577201
289.378933188787
289.3596585053428
289.3463877551221
289.3359609505991
289.3241190759819
289.3104605735252
289.2969282770109
289.2837985542899
289.2706201706275
289.259502380366
289.2508898967904
289.241294269465
289.2236597400456
289.1894983664665
289.1330714120198
289.0576395980733
288.9683469764963
288.8726732868193
288.7807694995442
288.7012879902267
288.6385326044534
288.5912209181361
288.5546840364053
288.5249945597852
288.5024601023754
288.4892922932732
288.485655182925
288.4911246995266
288.5030780815353
288.5169733020775
288.528671553273
288.5363324542307
288.5408961401376
288.54847448227
288.5779219616859
288.6476792986833
288.8121252894587
288.2005400428258
288.2657171589819
288.280157645584
288.2717439492299
288.2918093458408
288.3939716797034
288.5922126950391
288.833961570923
289.0641771362317
289.2411618785954
289.3511125896469
289.4080822045296
289.4392446337021
289.4636816403839
289.4923203274031
289.5284143491033
289.566154994711
289.5884169509987
289.5942788071467
289.5885179588529
289.5723161585332
289.5506899283058
289.5338633449235
289.5258347359008
289.5211055211028
289.5090146122695
289.4773210006394
289.4114005019893
289.309982553245
289.1817321563003
289.0407066968127
288.9012215784556
288.7740303847368
288.6644208762926
288.5725065818287
288.4944740056847
288.4281101579868
288.3760492513721
288.3427197166788
288.3287391948492
288.3317348190095
288.3442009816456
288.3588272236589
288.369004681411
288.3712880059554
288.3670805859107
288.3604300138387
288.361982244895
288.3782555556338
288.4574236265382
288.1947426105173
288.2848354868044
288.3228278588273
288.3064006198546
288.2805494468119
288.3191771041149
288.4788428745547
288.7174924916273
288.9685603780871
289.1702407894221
289.288298398315
289.3261593517427
289.3188019898149
289.3053620054864
289.3065714628226
289.3395055355122
289.4045653534309
289.4777596604181
289.542421975892
289.5908034810196
289.6285971563758
289.6665427927131
289.7108520429069
289.7636451284196
289.8139765977456
289.8434337709446
289.8408577805149
289.7801826391616
289.6629569254971
289.4991786611112
289.3101889485091
289.1173323491519
288.9376942747637
288.7809300983228
288.6471837204508
288.531464543728
288.4310498297029
288.3495780891827
288.2938504739756
288.2651989057441
288.2570287876845
288.2576867611057
288.2591315208235
288.2529139982685
288.2340305110158
288.2047759701298
288.1723987589966
288.1452661287913
288.130857023266
288.1738517926442
288.1855226221497
288.2769070431215
288.3391133054085
288.3415353214882
288.3184387934646
288.3285722939693
288.437516498836
288.6524545013412
288.9165860138434
289.158499242737
289.3206149539409
289.3812277452554
289.3719985970808
289.330664314759
289.2919013595521
289.2810678459113
289.3004419345857
289.3409632450322
289.3799563708753
289.4045292476075
289.4230656300995
289.459280882566
289.5219302463068
289.6152271883338
289.7311398090627
289.8460200613525
289.9323990830339
289.9613115877949
289.927106743071
289.816360541985
289.653274004086
289.4616141127273
289.2634345187378
289.0730371751055
288.8949462754198
288.7283070335382
288.5759281232725
288.4472777994785
288.3526356664277
288.2952066008386
288.2651912243549
288.2515966272516
288.2434772927606
288.2264520600248
288.190736263043
288.1350636874781
288.0668874270479
287.9969448267749
287.9345332152036
287.9321472179763
288.1852217259434
288.2664354882417
288.3310912017386
288.3536489122879
288.3507746184563
288.3662436371552
288.4501717649508
288.6241439802445
288.8615903703994
289.1044965467503
289.2937709976384
289.3950011110875
289.4156369005587
289.3941743269839
289.3575970466323
289.3372074333127
289.3436344649648
289.3685586020443
289.3920786629914
289.3965418981484
289.3820310192033
289.3697956941477
289.3807642755766
289.4358052323499
289.5345848341465
289.6521464264647
289.7601384114163
289.8287936544451
289.8399652294321
289.7850284540749
289.675799257718
289.534363990873
289.3818755288179
289.2317375430645
289.0886206503334
288.9502129722833
288.8142124533827
288.6857234734588
288.5749427855474
288.4901317625632
288.4323157651858
288.393829119204
288.3630880074386
288.3246516077481
288.2626342232318
288.1728746282796
288.0603343495548
287.9397388077306
287.8217142256979
287.7675616094413
288.1878529020728
288.2670671911327
288.3235044821575
288.3465534999535
288.356412539183
288.3895145231731
288.4810106189775
288.6414841832374
288.8516855654578
289.0704464362323
289.2516029703896
289.3638218935403
289.4051987041811
289.4020948617837
289.3822008591785
289.3721723620331
289.3839117085637
289.4111342929523
289.4372442977298
289.4440735209112
289.4263928343855
289.3990929864895
289.3861632169271
289.4095306022369
289.480741984442
289.5789545667221
289.6761586699182
289.7421510033365
289.7554174584926
289.7061734034724
289.5991459003537
289.4558784659134
289.3007272518542
289.15241225515
289.0195059334229
288.9018488618411
288.797346227412
288.7071524514809
288.635651289924
288.5873208308821
288.5621509556427
288.5531821679642
288.5519372508841
288.5389644713568
288.4842546149507
288.3823172077278
288.2388064547312
288.0706692888754
287.8873195036534
287.7422934645047
288.189961533059
288.272041216002
288.3257002783294
288.3426078187965
288.3504473805863
288.3889626077986
288.4925734625734
288.6614104197603
288.8695135035098
289.0762121350552
289.2418223490611
289.3436510220282
289.3833723870833
289.3837397796809
289.3714456410987
289.370239495364
289.3907158148237
289.4277436778034
289.4634257778502
289.4786542723658
289.4655630479675
289.4349104650032
289.4097676865964
289.4152141170213
289.4667334639307
289.5547670633303
289.6513867090861
289.7243274260255
289.7486828866773
289.7136819961448
289.6141722416747
289.4713321864593
289.3060795084237
289.136914584794
288.9763349863489
288.8304745186109
288.702032942166
288.5945370704723
288.5138624506994
288.4683666329757
288.4617312335768
288.4862873412912
288.5300285644622
288.572568082944
288.5872525835323
288.5545851643641
288.4528888930679
288.2998965857832
288.1093519578412
287.90800755755
288.1915936851063
288.2772258830158
288.3311223622758
288.3445786535719
288.3487301753567
288.3839904826117
288.4900568531036
288.6642731540259
288.8786980843474
289.0889351326792
289.2528529649016
289.3487380041036
289.381435589295
289.3761449884117
289.3574914142802
289.3518625636304
289.3720703132158
289.4170898919671
289.4665090928955
289.4969117095148
289.497254991731
289.4746162482996
289.4460297153611
289.4361782065802
289.4637984135495
289.5298792656748
289.6145479381274
289.6884940094122
289.7236506485544
289.7045739026506
289.6267791433584
289.5038872714969
289.3544188098379
289.1939284628635
289.0320257327315
288.8735451250074
288.7223904232723
288.584112161284
288.4673259461959
288.383301553339
288.3434963220529
288.3456454751027
288.3830121690281
288.4385319197004
288.4887820588293
288.5100255440921
288.4834614916052
288.4003119552325
288.2698289029663
288.0959238156448
288.1934041244968
288.2821880883482
288.3364967176819
288.3478695723176
288.3496938744527
288.382269998597
288.488518805503
288.6632779298421
288.8779927380082
289.089939643375
289.2586002272031
289.358641261297
289.3917570733223
289.3859868138524
289.3622541324451
289.3469454492139
289.3542155646684
289.3921138777605
289.4443254682831
289.4894260301998
289.5067356283917
289.503550192638
289.488522168225
289.4780868956395
289.4909171277355
289.5329360055608
289.5937525212297
289.6513734495995
289.6811620634786
289.6660833010318
289.6011058703194
289.4949209363227
289.3634097051108
289.221155187825
289.0761608703708
288.9303736860119
288.7844314214192
288.6423416461899
288.5121582385004
288.4047948371197
288.3318317385185
288.3002084984358
288.3038504936084
288.331753562176
288.3677947142504
288.3905280640528
288.3838459653538
288.339241640959
288.258604814354
288.144757906512
288.1953151790732
288.2873631246948
288.3421673032657
288.3517326344914
288.3508572912119
288.3803668704094
288.4875963045669
288.6650264225738
288.8804106819463
289.0895210550917
289.2557102360407
289.3575610932121
289.3958022986691
289.3960929121986
289.3776312550835
289.3607848505614
289.3606075032088
289.3825444712639
289.4207321114731
289.4607687134032
289.4888602771375
289.5026344470122
289.5075546543549
289.51398022207
289.532259373951
289.5662333404497
289.6089717992446
289.6453398300443
289.6577355314032
289.6324528843646
289.5656601088086
289.464231884271
289.3414639117522
289.2106854599983
289.08002246938
288.9507040051563
288.8203695465849
288.688875512422
288.5618496891624
288.44923119305
288.3623089774541
288.3102689327469
288.2939296335909
288.3012366109372
288.3193416426309
288.3293658133949
288.3160386799063
288.2727717045686
288.1989104379786
288.105311132758
288.1973232474897
288.292503397155
288.3477152205301
288.3564072069894
288.3529619189601
288.378615793216
288.484625071486
288.6649922439767
288.8848685191842
289.0955099283286
289.2582889336051
289.3547919864765
289.3912569500158
289.3940522715737
289.3832757560917
289.3758864938718
289.3807151537044
289.397730340888
289.4217246490088
289.4449519715171
289.4627338105042
289.4774888343366
289.4943802451592
289.519700500808
289.5558737566465
289.5997110525383
289.6415994813082
289.6677856353334
289.6651849448067
289.6248159174559
289.5462749952085
289.4383259991009
289.313860086699
289.1855791605706
289.0616978718646
288.9436315227067
288.8278517119257
288.7111627823125
288.5951472699938
288.4863456901096
288.3948937481749
288.3304390811385
288.2969736533457
288.2898914779921
288.2960162402804
288.3008845545421
288.2882461202837
288.2492170346742
288.1807113941007
288.0880115920778
288.1995893131412
288.29778491159
288.3530840326956
288.3611141960835
288.3557689454317
288.3784488611134
288.4816851719965
288.6623481738682
288.8859367584587
289.1013908224072
289.265862271872
289.3593189425495
289.3906036047662
289.389201811194
289.3778061804247
289.3759916177718
289.3901648519777
289.4162756281553
289.4416080011819
289.4556663029989
289.4584186481615
289.4591020548795
289.4691647889324
289.4994209675858
289.5499278879196
289.6105921223681
289.665080647179
289.696392985798
289.691525552003
289.6425108764778
289.5510890552339
289.4307826785701
289.2965427135537
289.1616633246134
289.0351359301748
288.9200171769222
288.813715328666
288.7115713116868
288.6112945549279
288.5148270026572
288.4280324544831
288.3589834620207
288.3124312180073
288.2875959363042
288.2775530873971
288.271624295522
288.2568996716614
288.2238646567858
288.1684241071564
288.0879561275265
288.2021186082169
288.3035191149185
288.3583930429439
288.3656772580422
288.3585895963449
288.3791295377077
288.4801251135482
288.6599319624949
288.8846333446653
289.10380522878
289.2720511069458
289.366850142531
289.3964569814368
289.3911648554027
289.3746974320738
289.3703132274588
289.3854730631886
289.419034115343
289.4542345966081
289.4739374554474
289.474025960417
289.4642911508266
289.4607639712185
289.4799491242945
289.5297830559771
289.5978436212901
289.6642129700073
289.7072070847061
289.7123177589615
289.6704816405133
289.5752992461386
289.4461491399308
289.3002475676868
289.1529269955251
289.0154368532797
288.8932377038154
288.7862580335773
288.6911339955022
288.6041126580832
288.5235944678284
288.4508462190115
288.3891733290624
288.341245237811
288.3063674271025
288.2803182824426
288.2567280828777
288.2281302615813
288.1886110260864
288.136901963763
288.0699318915509
288.2048587441208
288.3097341269482
288.3638087443336
288.370159732253
288.3611246917258
288.3796541700135
288.4792297216558
288.6588636257795
288.8838034609171
289.1045500811904
289.2755353224773
289.3726127558907
289.4029488364396
289.3973110656503
289.3781140211262
289.3692198536185
289.3803717875229
289.4140246625539
289.4541919801822
289.4823812840785
289.4855671382766
289.4776571685248
289.4703883337872
289.480954298719
289.5204211866024
289.5824305526778
289.649464725237
289.6987741499002
289.7126003340492
289.6825374758307
289.5966035743405
289.4710293520827
289.3220314625705
289.1661301549549
289.0163223275283
288.8807639304217
288.7630428555094
288.6630317984934
288.5787767244034
288.5083774457183
288.4503609506086
288.4035475025951
288.3662300075538
288.3346525893224
288.303758607349
288.2682926002716
288.224105053043
288.1693198033502
288.1068128027167
288.0396801963069
288.2078032326955
288.3163677184899
288.3693820070015
288.3745300349811
288.3635453069456
288.3800148305741
288.4782266291307
288.6582899297092
288.8840662831931
289.1059087147485
289.2784363003967
289.3766603099244
289.4075986081812
289.4024511594866
289.3829252300111
289.372189626133
289.3812994319792
289.4126810564289
289.4516879145195
289.4816491134278
289.4883963711024
289.4845417184978
289.4804772053847
289.4913371328877
289.526509977413
289.5816921904686
289.6417912850137
289.6868923543269
289.7005750198471
289.6730510624866
289.597834351116
289.4839880907427
289.3442064177058
289.1915665278837
289.037775650943
288.8916647950692
288.7593628570301
288.6452028036138
288.5518385470505
288.4801415600233
288.4284539789057
288.3945045942953
288.3724959078735
288.3537885308117
288.3304950184019
288.2947746222605
288.2430105959135
288.175751271001
288.0985683158718
288.0206619133901
288.2110411792785
288.3229960787295
288.3744879804236
288.3788827119693
288.3661352170431
288.3806694413651
288.4772159214202
288.6576775104706
288.8846917209229
289.1080120338784
289.281814399596
289.3807412216771
289.411699893455
289.4061492259074
289.3861040216599
289.3755044448498
289.3844466072829
289.4150657171301
289.4530462188361
289.4817584635496
289.4889215843351
289.4850947835915
289.4823942349929
289.4953717467892
289.5340691820838
289.5900987647472
289.6476303112245
289.6879661451551
289.6960422959509
289.6626272136812
289.5852152039969
289.4761468406372
289.3469693991506
289.2065774038735
289.0613167608843
288.9166594689171
288.7780617664596
288.6511191473703
288.5422550009785
288.4578514320555
288.4009300116062
288.3693043330857
288.3562057955181
288.3519567780058
288.3443362154965
288.3186304362117
288.2706815325841
288.2006984233312
288.1137866392792
288.0224593862199
288.214697245947
288.3285319374795
288.3796712095829
288.3833685367752
288.3690241276897
288.3816270903546
288.4763919988355
288.657076978864
288.8853067841758
289.1103187982926
289.2855547539553
289.3852290875702
289.4162104509427
289.4100626327247
289.3889229594747
289.3778324613358
289.3864210857128
289.4171402543074
289.4556433115131
289.4853811397886
289.4923253281511
289.4870585018321
289.4819755314592
289.4928151923597
289.5329179435342
289.5935026588475
289.6560128145694
289.6982771720633
289.7049038823347
289.6660717612853
289.579855205998
289.4639138481862
289.33412754803
289.2009228520389
289.0679424802451
288.9350116377612
288.8023246538452
288.6731629810842
288.5548819272049
288.4566314964609
288.3857373059276
288.3449302950284
288.3302559448976
288.3313774987597
288.3347244353487
288.3258887613447
288.2915686858729
288.2291306347696
288.1415725907328
288.042015295594
288.2181398431119
288.3339932878955
288.3848742317757
288.3878456605404
288.3720685975287
288.3827805963073
288.475790647969
288.6566667242825
288.8861126428949
289.1127339260105
289.2893971796521
289.3898238376453
289.4208849150489
289.4143640782504
289.3922616324907
289.3801052409992
289.387893014811
289.4183314081791
289.4572618796714
289.4886995717529
289.4962453614961
289.4914971973053
289.4851090143771
289.4929016381066
289.5292696257518
289.5897021612303
289.6563328824861
289.7043551978463
289.715009593391
289.6800653158792
289.5891751080126
289.4642957099581
289.3252622680805
289.1872627526056
289.0573373211447
288.9344040872294
288.8138744364471
288.6935512337267
288.5771258322263
288.4729472328136
288.3904601758928
288.336548444151
288.3117060005606
288.3079394983876
288.3128422216387
288.3121471693323
288.2920412731213
288.2442589400025
288.1675374866439
288.0696303607133
288.2213403926636
288.3395005081327
288.3900722038388
288.3923213557849
288.3752466203329
288.3841340229243
288.4753612040488
288.6563850498187
288.8870992504783
289.1153847026574
289.2934089058396
289.3944841421786
289.4254930009694
289.4185155260458
289.3956693117829
289.3828113514219
289.3899521695571
289.4199352846093
289.4588278065181
289.4903613149438
289.499014243502
289.4955131407752
289.4899443528174
289.4973515849148
289.5305496966455
289.5872268016129
289.6522812007389
289.7023564732079
289.7174797663212
289.6902205026583
289.6032407716622
289.4764635377985
289.3303358794072
289.1830560425837
289.0460235555263
288.922421655228
288.8085962300619
288.6986841980458
288.5912709176366
288.4912697251272
288.4074441565728
288.3466633243962
288.3110561434172
288.2969560352204
288.2946378952067
288.2913442478942
288.275382827909
288.2379605593715
288.1750613126456
288.0881056246626
288.2244829129914
288.3449844480501
288.3952987401889
288.3967533009902
288.3784478760981
288.3856159961716
288.4750432372311
288.6561882619106
288.8881436242399
289.1181688040923
289.2976269517162
289.3993217004285
289.4302222697593
289.4225744410622
289.3988391292413
289.3855761673683
289.3924002320798
289.422360397092
289.4612908062114
289.4924562846197
289.5011689613871
289.4979998526506
289.4931282192791
289.5014243645184
289.5348045866012
289.5896449106942
289.6518781692693
289.699998089506
289.7152208246173
289.6907483809287
289.6099342494724
289.4881629736849
289.343115577572
289.1918649278853
289.0473216185296
288.9158798783322
288.7976074413042
288.6892688890308
288.5887961749805
288.4978005044902
288.4210417492861
288.3631090413811
288.3252218772449
288.3042065263634
288.2924416421436
288.279931338353
288.2576017381745
288.2194965509878
288.163186870195
288.0875869864175
288.2276476805303
288.3504039566897
288.4005038851255
288.401190029847
288.3816488037114
288.3872796543493
288.474913095932
288.6561384210589
288.889236942875
289.1209646359521
289.3018975306329
289.4043305868574
289.435179032967
289.4268271441231
289.4020037163645
289.3880795631262
289.3946159109714
289.4247274461198
289.4641993614001
289.4956168163959
289.5041243134193
289.500426375357
289.4950187258519
289.503254782183
289.5377270859576
289.5933914134909
289.6551057761927
289.7012464359299
289.7154095080743
289.6899291231309
289.6108576499359
289.4928107179603
289.3518144471986
289.2027575719314
289.0567772501875
288.9203666231485
288.795659233659
288.6820750501865
288.5798943093114
288.4917483681559
288.4210456367043
288.3695152138411
288.3368057282565
288.3183461089998
288.3045132492629
288.2854204081406
288.2539621940768
288.2074033560141
288.1473467584928
288.0759055855954
288.2308376083458
288.3556784066083
288.4057106094868
288.4055903772277
288.3848141926836
288.3890079183568
288.4749114041502
288.6562505289893
288.8904741985792
289.1238582009702
289.3061923150493
289.409406498394
289.4402363063059
289.431272149318
289.4053942407289
289.3905789974767
289.396664657989
289.4269244981407
289.4669295270064
289.4990682685847
289.5077661065231
289.5037856190569
289.4973464221894
289.5044021936422
289.5386227251274
289.595336894721
289.6583743878356
289.7052498499893
289.7195928415301
289.6930096187079
289.6125243958743
289.4937739243252
289.3535865486962
289.2068613679046
289.0635682943904
288.9285149750191
288.8028705202832
288.6864128720559
288.5802574389386
288.4881193795183
288.4150779245487
288.3642947428289
288.3346029247064
288.3211048089543
288.313718093552
288.2979638368537
288.265686412682
288.213900847472
288.1460191445993
288.0697313731632
288.2338871667224
288.360971140478
288.4109133526538
288.4099826724042
288.3879312258722
288.3907918789791
288.4750185056308
288.6564627694702
288.891811331641
289.1268540035297
289.3105647428357
289.4145319745559
289.4453307194566
289.4357775358991
289.4089250307801
289.3931910804941
289.3988070889262
289.4290898010582
289.4694739740056
289.5023271192945
289.5113758524917
289.5075031390958
289.5003632385005
289.5063440044007
289.539428279061
289.5961952941252
289.6603165234887
289.7087464009126
289.7245486039047
289.6990740979235
289.6174410572298
289.4963674190292
289.353910169706
289.2062372734831
289.0642169010921
288.9325051312702
288.8107964689083
288.6964074744336
288.5894076282
288.4936541983821
288.4150063728425
288.358489541993
288.3255831828023
288.3120556081173
288.3087234886241
288.3028106414616
288.2797249907172
288.2322879305557
288.1623501918775
288.0796963338925
288.2372032830081
288.3662164251841
288.4160549530487
288.4142782461738
288.3908704415959
288.3925007011381
288.4751459417071
288.6567525197356
288.8932624802577
289.1299748924505
289.3149833663958
289.419710019919
289.4504606588484
289.440309540603
289.4124980719687
289.3959332695702
289.4011378438539
289.4313463751122
289.4720345893684
289.5054267344545
289.5148604873324
289.5110614801705
289.5034237264386
289.508702017732
289.5410572852859
289.59771412613
289.6624000282629
289.7117278967952
289.7283990603094
289.7040766923595
289.6224714508701
289.5006107936036
289.3568274318114
289.2077038869474
289.0648738120444
288.9339830252804
288.8149384153406
288.7033830852635
288.5976284524015
288.5013620009733
288.4198992696506
288.3584523630279
288.3200796162641
288.3029180718636
288.2995947913845
288.2978342726616
288.2848833143087
288.2481075540681
288.1843354176148
288.1003199169497
288.2406356477151
288.3716057232558
288.4211798077871
288.418584438915
288.3937214078806
288.3940544765509
288.4751955349444
288.6570381261598
288.8947809211407
289.1331994853825
289.3194832751244
289.4249646748181
289.4556299095007
289.444875080593
289.41610453751
289.3987283047733
289.4035210077452
289.4337182656072
289.4746996935095
289.5084784550767
289.5181886100694
289.5143363405594
289.5062412022409
289.5109910714149
289.5431805806594
289.6002826448508
289.6655453218573
289.7151185405625
289.7314484284233
289.7069067458945
289.6252608926924
289.5040246176323
289.3613702681796
289.2132267383661
289.070512085932
288.9386152490121
288.8177118399109
288.705017056282
288.5994386637446
288.5037228368253
288.4228666061373
288.3620235002995
288.3230806602322
288.3037499462563
288.297463954079
288.294471563973
288.2830870394305
288.2521538782297
288.1959561255514
288.1158342352692
288.2440683960751
288.3769845734146
288.4263395867484
288.4229253205418
288.3965321132216
288.3955470653621
288.4752561339781
288.657349771754
288.8963259017521
289.1364377431471
289.3239920898525
289.4302477432778
289.4608498415398
289.44950783189
289.4198001808459
289.4016526538805
289.406028646987
289.4361429483037
289.477357816313
289.5114555577102
289.5214678353122
289.5176536972949
289.5092070458632
289.5135779167904
289.5455670086638
289.6030374119817
289.6688229224765
289.7185277349787
289.7341257408064
289.7090229483023
289.6274415226827
289.50721927352
289.3664591736604
289.2204313319687
289.0788619853818
288.9459708900305
288.8217892787147
288.7050386030662
288.5964063314489
288.4996999975063
288.4207618189803
288.364429779091
288.3302858254601
288.3134855585968
288.3070767246483
288.3009241572335
288.2839049247267
288.2486782702717
288.1924813682801
288.1151961274011
288.2473680747312
288.3823340901262
288.4315616877963
288.4273636421288
288.3993415438209
288.3969621753366
288.4753198949023
288.6577144172197
288.8979281276276
289.1396950425501
289.328585023277
289.4355526899705
289.466093725802
289.4541692497019
289.4235333815869
289.4046511371932
289.4085859729511
289.4385118597624
289.4798638100757
289.514316479325
289.5247729317686
289.5211682873882
289.5126771036952
289.5168446991813
289.5482438929917
289.605270744144
289.6708164264923
289.7207088693115
289.7366020318596
289.7120222794837
289.6317965353325
289.5126780097577
289.3726302236885
289.2269101657895
289.085038806823
288.9509560659064
288.824859471064
288.705601825925
288.5944345825946
288.4965496776526
288.4187970135138
288.3659473820701
288.3365944538369
288.3237631411922
288.3200672952867
288.3130019763295
288.2898582830902
288.2465706339747
288.1840374894406
288.1049355190399
288.2505421902539
288.38768459946
288.4368287431444
288.4317974018592
288.4021967090669
288.3983805750204
288.4754095476831
288.6580930063552
288.8995242780931
289.1429301753829
289.3332105730309
289.440880358116
289.4713744565747
289.4588636414096
289.4272610757857
289.407650431304
289.4111161541483
289.4409970540262
289.4825048804623
289.5173335227976
289.5282885110728
289.5249950326628
289.516558076984
289.5203219859845
289.5506606635707
289.606649436318
289.6714706712339
289.7219153299389
289.7399728604555
289.7170213452659
289.6390916846543
289.5207950731355
289.379757944707
289.2316937037156
289.087028517233
288.9508363221258
288.8243226913995
288.7062039743752
288.5965470903658
288.5001829789049
288.423589316737
288.3713574334502
288.3425721261318
288.3298334716623
288.3259733229396
288.3183403567587
288.2932861528521
288.2467484478997
288.1801951047296
288.0989293345503
288.2536735609843
288.3929478563718
288.4420433388784
288.4361839184335
288.405025918854
288.3997911438099
288.4755182335999
288.6584641813031
288.901082994646
289.1461338432247
289.337799804325
289.4462553874509
289.4766700062664
289.4635395018346
289.4308693820111
289.4104383646566
289.4134482483165
289.4433948736755
289.4855205597759
289.520916020441
289.5321297098333
289.5289057731759
289.5202017245498
289.5229619973733
289.5520045528905
289.6073858023497
289.6723240678646
289.7244037339912
289.7454366012164
289.7240840498076
289.6474948231094
289.528720980478
289.3853045818536
289.2336820638216
289.0857515030667
288.9479489946335
288.822222891721
288.7075690951351
288.6027825575377
288.5101687769077
288.4349192243674
288.381403256082
288.3489632603996
288.3321913614129
288.3233371752033
288.3126207471991
288.2890965389096
288.2459820478211
288.1824486818126
288.1034871021634
288.256859607216
288.3981559817182
288.4471489999239
288.4404676282663
288.4077302949945
288.401220733107
288.4756897108338
288.65887094759
288.9026868168591
289.1494223295316
289.3425188932392
289.4517004046613
289.4818767982999
289.46802836639
289.4342260068567
289.4130516061382
289.4158013916742
289.4462170511404
289.4892118086324
289.5251560115038
289.5359494057226
289.5321147517013
289.5225628022861
289.5240295876688
289.5526480698888
289.6089613791727
289.6753834453439
289.7299162480894
289.7530976005866
289.7324770914569
289.6543792723135
289.5327964740491
289.3863420937155
289.2324967051575
289.0839314275677
288.947202933873
288.823829183046
288.7125853826729
288.6117006765339
288.522101813677
288.4471234725916
288.3902954378071
288.3524590038247
288.3302828343748
288.3169789467272
288.3038477041511
288.2817634349932
288.2438193240566
288.187248744853
288.1148165443415
288.2599312993054
288.4032991963246
288.4521605317028
288.4446124286665
288.4103059642856
288.4025914651614
288.4759121911719
288.6593156480654
288.9043601892936
289.1528160498625
289.3474232917411
289.4570766675229
289.4868274568243
289.4722026089175
289.4375132831825
289.4158212456368
289.4186815494157
289.4497195193969
289.4933773418578
289.5292143028259
289.5390025674517
289.5340705586396
289.5232422694088
289.5242297036753
289.5541069990939
289.6131302241612
289.682218850936
289.7381203810946
289.7605459571306
289.7387393798396
289.6566745170146
289.5317416812389
289.3837239450743
289.2307014005746
289.0850087764455
288.9520861005117
288.8322124221206
288.7230999112297
288.6226196339312
288.5314729336542
288.4534869534272
288.3928631846346
288.351294598917
288.3263482137875
288.3116236068641
288.2984689538075
288.2782058356158
288.2442326633638
288.1934010266961
288.1270115067515
288.2630827628252
288.4083456474754
288.4570446277592
288.4486532141726
288.4127590880172
288.4039057163528
288.4761267895669
288.6598067234254
288.9061179483489
289.1562546928205
289.3523133746777
289.4621507272896
289.491410897822
289.4761083706462
289.4410293737741
289.4191305658787
289.4223180928445
289.4537517957622
289.4971883845918
289.532069500324
289.5408786000759
289.5349434076315
289.5236801523606
289.5257565319652
289.5585167438252
289.6204996347535
289.6915612222418
289.7464358794627
289.7643620006286
289.7391975567137
289.6536501908652
289.5278906579995
289.3817658007999
289.232719091118
289.0919951364629
288.9634411372437
288.8456129050392
288.7352770714116
288.6311138701993
288.5354598346991
288.4532084609767
288.3892751148334
288.3459694789597
288.3212312281917
288.3085173785579
288.2983965395742
288.2815400201541
288.2507544043185
288.2027180629914
288.1389527837527
288.2660865021855
288.4132864086545
288.4618682897256
288.4526698900896
288.415187586377
288.4051425477385
288.4763427529577
288.6603652005551
288.9079130552191
289.1596193448549
289.3569471230539
289.4669116191585
289.4959200006005
289.4801541009356
289.4449687428058
289.4230242982265
289.426530385201
289.4574702259654
289.4996075827157
289.5330905040715
289.5418822789783
289.535721377444
289.5257366695052
289.531003159385
289.5668318446278
289.6296056072492
289.6994430841237
289.7505230159069
289.7633466770736
289.7339256072563