/*--------------------------------*- C++ -*----------------------------------*\
| =========                 |                                                 |
| \\      /  F ield         | OpenFOAM: The Open Source CFD Toolbox           |
|  \\    /   O peration     | Version:  v1912                                 |
|   \\  /    A nd           | Website:  www.openfoam.com                      |
|    \\/     M anipulation  |                                                 |
\*---------------------------------------------------------------------------*/
FoamFile
{
    version     2.0;
    format      ascii;
    class       volVectorField;
    location    "1000";
    object      U;
}
// * * * * * * * * * * * * * * * * * * * * * * * * * * * * * * * * * * * * * //

dimensions      [0 1 -1 0 0 0 0];


internalField   nonuniform List<vector> 
7500
(
(39.95687341807852 -0.02571822026884481 1.02583548674091e-18)
(39.97811411988797 -0.0196279415081482 1.328335308250042e-18)
(39.94942765505872 -0.009048628913928538 -6.214371331716476e-18)
(39.90349332354296 0.008167922222718041 1.74118166674338e-18)
(39.83867240638644 0.01851523010275411 -4.72915929858049e-18)
(39.76653000535593 0.02008311715767478 1.748545814010951e-17)
(39.70426191228542 0.0125719041670898 2.035394068911805e-17)
(39.65826500841498 0.0002225355676447024 -2.451424181354326e-17)
(39.63229063062826 -0.009943205239081218 -7.002492894821317e-17)
(39.62075852127693 -0.0159092804675285 1.726247516455861e-17)
(39.61484143441208 -0.01596899568516631 1.218388731761521e-16)
(39.60421287584678 -0.01132195637400126 3.182264159123441e-17)
(39.57868250381235 0.0004385236114811898 -3.520302572957099e-17)
(39.53684272644646 0.01275617033646233 -7.60974715078304e-17)
(39.48419220621736 0.019217548363487 -5.413783852702395e-17)
(39.4275349642675 0.02080568654183307 -1.035401785607145e-14)
(39.37407489310077 0.01899880813641749 1.165751099443943e-13)
(39.32924377140034 0.01536514287818722 2.49150102492484e-14)
(39.29487191615085 0.01163137046384234 6.918076766499746e-15)
(39.26934060096075 0.009583165843719649 1.729411141193578e-15)
(39.24961922834147 0.009119493235965356 -1.77153107717354e-16)
(39.23134069858068 0.01103035227234372 -6.337549938908972e-16)
(39.20826800376548 0.01547160024718159 -7.540543914930662e-16)
(39.17703252721655 0.02076682857326364 -8.217227928682441e-16)
(39.13772998886925 0.02536947482619698 -8.96641328581385e-16)
(39.09337440932256 0.02862259199029347 -9.136848409618766e-16)
(39.04762065675698 0.03200395087870495 -7.467246810196156e-16)
(39.00331851138095 0.03552936109941712 -5.084047490459048e-16)
(38.96053802171545 0.03981738629920296 -5.287784830964638e-16)
(38.91689333487204 0.04714832187687775 -5.847801259873091e-16)
(38.86786446993305 0.05591935204234297 -4.376515069085889e-16)
(38.80734703908549 0.06353594656455959 -1.632649325285944e-16)
(38.72908026502638 0.07206793396384462 6.857144733101824e-17)
(38.62817825290245 0.08316484918849747 1.681181382544546e-16)
(38.50177360668758 0.09679251162048423 1.574909631978677e-16)
(38.34926499470026 0.111993512586866 1.042985401486344e-16)
(38.17277718788269 0.1277972720151778 8.153932884066781e-17)
(37.97697461108319 0.1439242279280422 1.208489910360416e-16)
(37.76742041757651 0.1582692407617584 2.075380719586995e-16)
(37.53777865912669 0.1714137131405275 3.116620284593129e-16)
(37.27627928384697 0.1883111252854516 4.06062846288595e-16)
(36.97671464448501 0.2140772727049552 4.11580738728402e-16)
(36.6218329387635 0.250066091503338 1.53996699944649e-16)
(36.18704141299538 0.3000370986194867 -1.959347814601912e-16)
(35.64032879985231 0.3718811059556024 -2.849942372871574e-16)
(34.92333869494265 0.4844477327412131 -9.14054524600447e-17)
(33.95473427020583 0.6733545777858622 1.511721859191945e-16)
(32.51394112579938 1.021066341630257 1.812974801764614e-16)
(30.37989171790495 1.90244089277456 -4.758263137259951e-17)
(26.62984451063131 1.724964973383513 -3.781169359394352e-16)
(39.98982810488938 -0.002409272265380513 -7.637380667299148e-20)
(40.00521016979147 -0.002947526171356397 3.71724013514588e-17)
(40.00364166919408 0.02958818018919341 -1.6125057759694e-16)
(39.99461882519344 0.05779612599041531 1.430653881411169e-14)
(39.97597588910074 0.07431918201375104 1.127751926299632e-16)
(39.95163356035997 0.07655395993495402 4.459159735564751e-17)
(39.92401804837536 0.06496137946328627 7.989737278284189e-17)
(39.89918850882044 0.0380282259784949 -1.396470113190613e-16)
(39.88421639192849 0.01573898362280474 7.343888477411092e-16)
(39.87987671441813 0.003846485175744773 -3.694043139504727e-15)
(39.87990678756306 0.002528790533546178 -1.431313321578422e-14)
(39.87609015929801 0.01701810037880121 -1.445024787987819e-14)
(39.85734094126952 0.04526951786038434 -1.444161021714719e-14)
(39.81302215560028 0.07416231522514255 -1.440236147835921e-14)
(39.74287418747389 0.09297688606224699 -1.268037710229051e-14)
(39.65433817678542 0.09679643587696966 -2.150024485270442e-14)
(39.56149246589057 0.08682376034971712 8.947774982874503e-14)
(39.47872981554494 0.07007991089633656 -2.93523539659547e-14)
(39.41249058815531 0.05265860019706734 -2.905934838482482e-14)
(39.36369491671235 0.03899039745252062 -2.87035588962981e-14)
(39.33116338890247 0.03140088860263789 -2.714925034817331e-14)
(39.30870825970847 0.03214883199576274 -3.558063196350777e-14)
(39.28500437174949 0.04280894160384598 -4.351183619737643e-14)
(39.25159018856262 0.05828820188211482 -4.326421560410814e-14)
(39.20454732975663 0.07159033357902077 -4.299283240879838e-14)
(39.14695834912412 0.07800145573444728 -4.274115916364679e-14)
(39.08556702126516 0.07775680387497536 -4.230891582745579e-14)
(39.02678139122879 0.07474252237915908 -4.201685301389521e-14)
(38.97496291269409 0.07247583830684633 -4.241595250224954e-14)
(38.93323895276457 0.07391742391667953 -4.236858613525605e-14)
(38.89643997658716 0.08496880075926828 -4.204214201218699e-14)
(38.85386253880596 0.1074979368876252 -4.18136718171702e-14)
(38.7943233954384 0.1401868092858378 -4.175793120157535e-14)
(38.70643435967543 0.179440489422677 -4.17653348318221e-14)
(38.58408084044179 0.2200674319697804 -4.172708256561945e-14)
(38.42904708595139 0.2571699931620663 -4.15995397157799e-14)
(38.24628618767331 0.288175316080095 -4.136685385292166e-14)
(38.0412630816743 0.3145921641748604 -4.106261924802764e-14)
(37.81926847201839 0.3415146958524278 -4.072613680575504e-14)
(37.58183263146417 0.3741149727547592 -4.035902135038502e-14)
(37.32439691458394 0.4189822097710109 -3.99100616738485e-14)
(37.03769520026312 0.4836292383210581 -3.963995730246529e-14)
(36.70693057704227 0.577186092442617 -3.970543294847239e-14)
(36.3123640760933 0.710789908536145 -3.919407909630101e-14)
(35.83126921624451 0.9005815094956932 -3.791810735973505e-14)
(35.2335937628362 1.179492966671577 -3.644837914254934e-14)
(34.52557540397103 1.608314415808937 -3.514390536256442e-14)
(33.71281180867012 2.285793570258968 -3.391333009115016e-14)
(32.94783169084077 3.885677449748613 -3.108283459335411e-14)
(31.95005144058273 3.653069408911848 -2.850541935196915e-14)
(39.97816892638088 -0.02954493730824119 -9.765098279804419e-18)
(40.00031508963608 -0.02368464042581661 7.494148280337601e-17)
(39.99439182923641 0.01122172253172276 -3.405282508172831e-16)
(39.98402400712432 0.04993704039651096 1.429249951222971e-14)
(39.966700912364 0.07614563537786891 3.217246066954411e-15)
(39.94925372030534 0.08178440291103278 8.300686392540037e-16)
(39.93314567728849 0.06618348413660188 1.790888545921827e-16)
(39.92227957203718 0.03522268032199924 2.031622857817552e-16)
(39.91895496995134 0.00363217144270947 -7.626842533921593e-16)
(39.92333563568881 -0.01697061628551404 3.297017721860905e-15)
(39.93301263448553 -0.02038651727177412 1.42158041075182e-14)
(39.94762484356736 0.00354882040221778 1.425638608879908e-14)
(39.95383378128814 0.05240092336461797 1.420365961118742e-14)
(39.942216430989 0.1120281429653137 1.413932881201015e-14)
(39.90732742027941 0.1618572679244385 1.23960842187006e-14)
(39.84885488592207 0.1860371266810462 2.142947992760903e-14)
(39.77114530850856 0.1817645136157683 -3.053923274807834e-14)
(39.68619533360182 0.1574258611456419 2.895570307518413e-14)
(39.60695895331497 0.1251475110322819 2.895572326032605e-14)
(39.53910573261604 0.09456466707252073 2.896114424055244e-14)
(39.48362839751821 0.07344485427113806 1.265640644881065e-15)
(39.43960279267749 0.06742615165822856 1.528373347901232e-13)
(39.39946346330355 0.08039387144041564 -3.159648294113306e-15)
(39.35566536892652 0.1069841610266999 1.012480524372708e-13)
(39.30244293726643 0.1357859250533019 5.601810775969254e-14)
(39.23815736227515 0.1552266784993737 4.384202476420045e-14)
(39.16664411901137 0.1597603999009835 4.249620871037891e-14)
(39.09509719560452 0.1519894994719775 1.392027509564454e-14)
(39.03011382947458 0.1394026773479199 1.57323129313433e-13)
(38.9758766227174 0.131655612272709 6.772765378045019e-14)
(38.92892513660072 0.1392513947028638 4.541442420734874e-14)
(38.88018157368345 0.1698103645579716 3.999744741537148e-14)
(38.82097823297035 0.2235399316660981 3.822388325565925e-14)
(38.74360455677485 0.2948775041130413 3.735636318051149e-14)
(38.64115769376335 0.3735664563594587 3.662091015501943e-14)
(38.50860357610798 0.4483346557868855 3.586809085303018e-14)
(38.34493985469407 0.5116154520889362 3.503576465910343e-14)
(38.15276398176923 0.5624095747399117 3.393376738892243e-14)
(37.93725983034148 0.6070867086855318 3.298553405572954e-14)
(37.70354094793018 0.6567856726635822 3.030371302788427e-14)
(37.45190385600304 0.7233902202054613 3.448182213560004e-14)
(37.17777860355517 0.8193869539389824 7.713870585984971e-15)
(36.87228744965388 0.9580633715054725 1.103221280491346e-13)
(36.52292307563238 1.153680311792039 1.560381302097251e-13)
(36.11770632227616 1.423691887149017 4.557870442081328e-14)
(35.63859388674216 1.794851163705363 1.592337083893371e-14)
(35.09558211578778 2.308131235873356 4.913252053968808e-15)
(34.49080499260199 2.916383701637666 -2.035649016056091e-15)
(34.0951317426055 4.3668431422695 -9.625051264725375e-15)
(33.52692948874305 4.522404668388807 -1.626906308264428e-14)
(39.98174914777959 -0.0370144947680014 -2.18791488168067e-17)
(39.99371589401155 -0.02530780616371684 1.845244960515393e-16)
(39.98682989799023 0.01600006823176441 -7.25474019641011e-16)
(39.97239328545691 0.06140372074481446 3.150960228408551e-15)
(39.95205740743044 0.09089586969750614 -1.426448886974034e-14)
(39.9311393466346 0.09683196330832133 -3.113686272335621e-15)
(39.91087541402703 0.0769168464075053 -5.944241887322639e-16)
(39.8971310647829 0.04048240860080237 -1.36600341933423e-16)
(39.89222924957822 0.003025488469711519 8.130370022916651e-18)
(39.89608798640224 -0.02362535243530169 3.151034203659266e-17)
(39.90454924450463 -0.03131332474388671 7.185552725501179e-17)
(39.91960864316093 -0.008787285087895292 1.459048728960916e-16)
(39.93074919303772 0.04477991522410744 2.050729500845909e-16)
(39.92978296192137 0.11788405053683 2.013729611942076e-16)
(39.91260327745718 0.190008924131544 1.054542748329537e-14)
(39.8814508088046 0.2380855278728814 1.804828093495827e-14)
(39.83564430206864 0.2523723755941776 -5.783522539350663e-14)
(39.77686791363804 0.2352833372381583 -1.27314275791636e-14)
(39.71581086632661 0.1998611296626672 -2.898803729402225e-15)
(39.65918938989287 0.1617471190708842 -5.676370957306511e-16)
(39.60974400374394 0.1331131838965471 3.690598909550101e-15)
(39.56839630139671 0.1219333316266444 1.473381728367038e-13)
(39.52794564966016 0.1341678794278102 -2.840257811074452e-14)
(39.48260211341132 0.1660688258470074 7.560476932858067e-14)
(39.42814461696289 0.2039916592473484 4.166372858231599e-14)
(39.36139955892846 0.231568517522165 3.202378594578036e-14)
(39.28437821733859 0.2401108847082468 3.415875068183502e-14)
(39.20325973760684 0.2304453679766273 4.111906351093195e-15)
(39.12295664578916 0.2123472055911072 1.64299831172074e-13)
(39.04806349898409 0.1991814875750193 8.466193611143018e-14)
(38.97979100340904 0.2031780731522636 6.502014176742594e-14)
(38.91409039864411 0.2352151544577583 6.025328313640841e-14)
(38.8453214299513 0.2979435845703232 5.90665835982211e-14)
(38.766354360656 0.3858904911838334 6.815204635805976e-14)
(38.67002419838456 0.4872850314470186 8.940646634863397e-14)
(38.55029504609602 0.5889197044847416 8.882926520585051e-14)
(38.40346046384053 0.6802891478605508 8.823364345859769e-14)
(38.22889552641016 0.7571496494555328 8.764073176467649e-14)
(38.02942270485156 0.8237865649710888 8.705407778548921e-14)
(37.80984584048421 0.8916078026502881 8.645397595941221e-14)
(37.5738441685356 0.9761088267689397 8.60355312808202e-14)
(37.32180353324699 1.094093661448877 5.502988409383616e-14)
(37.05071905141014 1.261907565800775 2.096717975324991e-13)
(36.75699250995213 1.495338189687713 2.101357731409033e-13)
(36.44271498055068 1.811227127526061 1.228269450294343e-13)
(36.1106400521432 2.229452046943849 1.138947942844058e-13)
(35.7905834137341 2.79375962110876 1.086211850268778e-13)
(35.48084035070082 3.372774168921256 1.040443037371886e-13)
(35.34156961339142 4.579378936357911 9.227016038969049e-14)
(35.21129438285169 5.061686344567645 8.097693025247078e-14)
(39.97775010362168 -0.04537181061322586 -1.254089914069634e-17)
(39.99239742268558 -0.03270027652205536 6.743131336205059e-17)
(39.98540743459298 0.01546226267181553 -3.464007062809352e-16)
(39.97019777145113 0.06907184620394703 1.517464777827146e-15)
(39.94819051264441 0.1044777437819937 -1.430032771177725e-14)
(39.92467338468906 0.111797199606905 2.994268102236488e-17)
(39.89925529718609 0.08875990143123222 4.722747197031165e-17)
(39.88006799434988 0.04572285225807717 -1.242382493640706e-18)
(39.87015621243332 6.541707463792967e-05 -5.022036506882934e-17)
(39.86893572703742 -0.03332525883747862 -5.330262746812665e-17)
(39.87240934474622 -0.04498164379396149 -2.51163318087454e-17)
(39.88185547671448 -0.02355564576616309 2.874167329141198e-17)
(39.89003207621292 0.03755182583302958 6.637102640279364e-17)
(39.89081377345439 0.1212087678978129 1.34404529927929e-16)
(39.88009074949387 0.2041864532197923 -1.432642250077207e-14)
(39.85697374742863 0.2646874535901029 -1.428850687589631e-14)
(39.82280078377913 0.2912841656974814 -2.330109581983681e-17)
(39.77586807698776 0.2835214316624395 1.190017539940192e-16)
(39.724016833286 0.2496281698533797 1.61680963465321e-16)
(39.67397828334605 0.2077309296505278 -1.092525697082754e-17)
(39.62868432056989 0.1748721566401792 -7.890237122739821e-15)
(39.59248318412144 0.1609713302309777 -2.865280548443615e-14)
(39.56081759021972 0.1742570526603167 -2.870700539880404e-14)
(39.53020994323001 0.2130358066920123 -2.837475519874663e-14)
(39.49725813195752 0.2636788562691765 -2.810201210467042e-14)
(39.45764622996333 0.3069039655283058 -2.785465584060838e-14)
(39.40646172569284 0.3288844945652526 -2.7404056514973e-14)
(39.3403948999176 0.3279198148314988 -2.425282756968595e-14)
(39.26267351181571 0.3123751856138136 -3.770479266117351e-14)
(39.17958131514984 0.297476050819076 -5.458001713270466e-14)
(39.0957365011019 0.297609789158049 -5.360783555195008e-14)
(39.01264947844457 0.3257544660425079 -5.212403657521322e-14)
(38.93060911637836 0.3885553675275906 -4.959242357238111e-14)
(38.84643457438519 0.483833987629102 -5.644634096079448e-14)
(38.75312681621581 0.6011468624522325 -7.6503489545104e-14)
(38.64330812257823 0.7257891892802439 -7.469472591255125e-14)
(38.5114044997397 0.8441462023404643 -7.270140660206104e-14)
(38.35477722642383 0.9483910220353734 -7.041449718844302e-14)
(38.17406523741657 1.03937327706795 -6.768188363667779e-14)
(37.97287826097541 1.126269615503376 -6.438950611362107e-14)
(37.7562769021292 1.225183316120806 -6.02985480195976e-14)
(37.52831153536744 1.35572259243222 -5.720904706805825e-14)
(37.29116120613514 1.536518014168312 -4.769641910704602e-14)
(37.04567709484636 1.78258929348122 -3.567958867144728e-14)
(36.79634582790523 2.106675713970389 -4.228218206170129e-14)
(36.54868409233868 2.514650506363877 -4.845456649653697e-14)
(36.33536469199564 3.050030987432765 -3.768889182209798e-14)
(36.14903799844335 3.572389995851658 -2.48968591140451e-14)
(36.14209089060748 4.508232667366942 -1.093123359713042e-14)
(36.20685198413228 5.131788504117703 4.468929800771061e-15)
(39.97791217605175 -0.04991457893207755 1.531615081713126e-19)
(39.99189439152815 -0.03776364896852571 -2.70048813873575e-18)
(39.98328250961752 0.01726625449620373 5.249745830684789e-18)
(39.96875664485862 0.07911728846165725 -5.621615284757073e-18)
(39.94834204314703 0.1207193123472796 -5.644778485445297e-17)
(39.92641572558571 0.1307042899426833 -5.914786475327676e-17)
(39.89974205887327 0.1057396583921257 -3.839280502556713e-17)
(39.87698989365231 0.05670715399325311 3.416655430081365e-18)
(39.86184616874397 0.003591087633465753 4.443648592801631e-17)
(39.85492673319446 -0.03652400812889738 6.723142190529255e-17)
(39.85436577925405 -0.05229012159294586 5.494859698032395e-17)
(39.85913578334662 -0.03361133043925198 7.739252701643245e-18)
(39.86478213126605 0.03114857465150903 -6.427802770255205e-17)
(39.86544986817466 0.123291578581857 -1.115169628736382e-16)
(39.85715022913076 0.2175364688357897 -2.128864332202224e-16)
(39.83719943099972 0.2910556980394824 -2.549448638408499e-16)
(39.8084814967207 0.3297135697607265 -2.451343064124608e-16)
(39.76785655620237 0.3305925567566912 -1.736731960800715e-16)
(39.71890984613714 0.299709530787571 -4.10390095945203e-17)
(39.66966481020561 0.2554524482417121 -1.75689986184725e-17)
(39.62340552912199 0.2177927579626118 -5.915060147955354e-17)
(39.58520968231455 0.1985288612060955 -1.309438754880113e-16)
(39.55171443991709 0.2062971543503532 -2.746870440942407e-16)
(39.5198030585312 0.2420384154105602 -4.609771208217601e-16)
(39.48847960530601 0.2945874443222962 -6.961999648043358e-16)
(39.45412443830337 0.3463623710992013 -9.838369605999214e-16)
(39.41446727704988 0.3811822906522976 -1.288729437819237e-15)
(39.36539638984421 0.3948275842902339 -8.652174395135935e-16)
(39.30643190079573 0.3916690460501014 -1.975327569422397e-14)
(39.24185971477095 0.3845324810021564 1.043000340061596e-13)
(39.17553490941152 0.3889886476502647 2.07933921051912e-14)
(39.10765260224092 0.4192415951434335 7.473745929771459e-16)
(39.03710717051846 0.4845411432202799 -5.340880152680883e-15)
(38.96218691395306 0.5855744616706781 -6.778677412007351e-15)
(38.87907943666291 0.7137481160559295 -7.889830862476924e-15)
(38.78248353822165 0.8548158622479536 -9.19526417332968e-15)
(38.66742976412221 0.9937518836486545 -1.067747167805521e-14)
(38.53074152449154 1.119780887422076 -1.224576231916149e-14)
(38.37180633155099 1.231247741691869 -1.385973196071444e-14)
(38.19380369692112 1.335438432387875 -1.553743194779947e-14)
(38.00197383764522 1.447452197891526 -1.728716591895699e-14)
(37.80135057096977 1.586852390991688 -1.909566648296743e-14)
(37.59735497224836 1.772806630543218 -2.113497402689476e-14)
(37.39534823651136 2.019830447345281 -2.316785892749878e-14)
(37.20316339046077 2.338984319908546 -2.555159849773847e-14)
(37.02843636756839 2.726530984668913 -2.797639091502639e-14)
(36.89870874703158 3.219175531093303 -3.043840715418368e-14)
(36.80514282454974 3.696376561631432 -3.167693387810222e-14)
(36.84358543638329 4.414918472487209 -3.173560374637745e-14)
(36.98186866977609 5.039833857255163 -2.99602444911337e-14)
(39.97732529509754 -0.05405403044793176 2.195605573292422e-18)
(39.99143605641321 -0.0418880423276612 5.835903478612367e-18)
(39.9811178620503 0.0184388303954693 4.471212212178702e-18)
(39.96619850071016 0.08648039757858887 -1.57450764506601e-17)
(39.94607853082282 0.1332736869208908 -4.763880110646127e-17)
(39.92633734616346 0.146816851722845 -6.723855749073557e-17)
(39.90099466219576 0.1228304519311812 -3.954060268528195e-17)
(39.87771031663558 0.07024460456689775 3.445406156527504e-17)
(39.85948281647836 0.01098186506383407 1.17379932916215e-16)
(39.84736819102907 -0.03500797015744182 1.635660505087004e-16)
(39.84247541547966 -0.05526354374177823 1.413952072073997e-16)
(39.8420738379939 -0.03971845866308256 4.435112673244856e-17)
(39.84347216065513 0.026417029465558 -8.950315703391467e-17)
(39.84325553285736 0.1234104924749975 -1.957113549438853e-16)
(39.83792162721981 0.2253900112027037 -2.366904100536111e-16)
(39.8233601161261 0.3096481611530486 -1.92407899971714e-16)
(39.80135267337877 0.3609905038985807 -9.153225295430892e-17)
(39.77102842895065 0.3727736809110237 3.956778762827538e-17)
(39.72900676655571 0.3485811590598275 1.617722382606107e-16)
(39.68289442437536 0.3051604644933991 1.882745985769517e-16)
(39.63623732673837 0.2651545341052184 1.465360296972144e-16)
(39.59475060730716 0.2430560446526494 1.188452375506997e-16)
(39.55670304424143 0.2474973209375643 1.779239572321002e-17)
(39.51945707761528 0.2802622401969561 -1.067064795829723e-16)
(39.48419875770975 0.3315881329953125 -1.153973569561646e-16)
(39.44819405928635 0.3856972989104708 3.092812859262286e-17)
(39.40945929408638 0.4270359806333787 9.045776614713411e-17)
(39.36506481505874 0.4486793923279791 4.680200586661203e-17)
(39.3126336135003 0.453324978056264 -1.003056156176079e-14)
(39.25473679260224 0.4516541579618319 2.352961531037359e-13)
(39.19449231871678 0.4592683951879952 -7.509024105578886e-16)
(39.13298375160698 0.4913383020449102 -7.115711531694553e-16)
(39.07134981903406 0.5585875794907237 -6.581303294784023e-16)
(39.01005203429066 0.6642333322173715 -5.442259566556106e-16)
(38.94700827244533 0.8020865942410882 -5.007911431179747e-16)
(38.87771674271875 0.9586443731759874 -5.484305141894769e-16)
(38.7963752044156 1.11777189223678 -7.151750304185655e-16)
(38.69839428874802 1.266364099684512 -1.023060928776092e-15)
(38.58097702492087 1.399849999285475 -1.445203715156073e-15)
(38.44309318192023 1.522788031587718 -1.889643325408373e-15)
(38.28718542542479 1.64781150628709 -2.205817156725466e-15)
(38.11947052962261 1.79286863940914 -2.314273951968942e-15)
(37.94839471756229 1.976561558837324 -2.323209288384259e-15)
(37.78314806844146 2.213144220624214 -2.584506373228638e-15)
(37.63497992832131 2.513621062101048 -3.212782779243958e-15)
(37.51193196751391 2.87005208356753 -4.252731476813632e-15)
(37.4359100254726 3.309345683022427 -5.92683984004444e-15)
(37.40183915015196 3.74726584584106 -8.408510569973788e-15)
(37.46309656245935 4.304734090799988 -1.108176531761012e-14)
(37.62103250312108 4.867565494965936 -1.48323079265118e-14)
(39.97701322915348 -0.0577140074968636 3.965995675582769e-18)
(39.99085811576616 -0.04457890222419297 3.613360258421789e-18)
(39.97937587011332 0.02144020587357678 -1.413348101447857e-17)
(39.96391600612347 0.09498251582792952 -4.497385723222274e-17)
(39.9437795567684 0.1453760638832103 -6.357273643529533e-17)
(39.925324152995 0.16119294741372 -4.374616960568287e-17)
(39.90201996097345 0.1384587319377843 2.543975712896661e-17)
(39.88020132611263 0.08516445773956256 1.116422869315552e-16)
(39.86140081262116 0.02235125154997977 1.542742714953559e-16)
(39.84650095524704 -0.02884210468980435 1.219104839800032e-16)
(39.83903152868787 -0.05314858822339776 2.994617182912218e-17)
(39.83306621461053 -0.03991116213231368 -9.214122075326523e-17)
(39.82890805997167 0.025214961961287 -1.659295930177198e-16)
(39.82509909947139 0.1243725429921844 -1.559337997044033e-16)
(39.81935002532517 0.2310478464210748 -8.283123828309561e-17)
(39.8082248241668 0.3219447413227465 7.354616387080367e-18)
(39.79108443595047 0.3826812295210589 7.164728897907887e-17)
(39.77004719712976 0.4046819456381659 9.304276915278093e-17)
(39.73723492616624 0.3899301313312567 7.625117455091106e-17)
(39.6977526646322 0.351338214487205 2.066251174272159e-17)
(39.65497014988272 0.3121748161760313 -8.849393497814673e-17)
(39.61473245283098 0.2893003425806848 -1.385690153642411e-16)
(39.57651506633879 0.2919633123498349 -1.230533929018111e-16)
(39.53787646695009 0.3227584370761915 5.804165534794368e-14)
(39.50065570616542 0.3733746242440539 -3.536849294377496e-16)
(39.46302158490337 0.4291290137595036 -2.782785255338872e-16)
(39.42319653144119 0.4753402919410623 -2.716697954254902e-16)
(39.37983120733637 0.5036467944996509 -2.601882081928609e-17)
(39.33013537116802 0.5151320198929582 -5.15212187189163e-15)
(39.27497622761592 0.5186280192151694 1.120645545190101e-13)
(39.21725606595793 0.5286697612950678 2.753725066350414e-14)
(39.15811726289627 0.5605309734011844 7.337033953531693e-15)
(39.09864015063934 0.6259818223985444 2.5924117775766e-15)
(39.04021589634448 0.7300103780969195 1.614783125999894e-15)
(38.98253778292207 0.8687575505329791 1.450633756011956e-15)
(38.92381496727626 1.030752601523435 1.258645249636325e-15)
(38.86138363553456 1.200918117891079 8.771733316396713e-16)
(38.79194761204604 1.365673358965985 4.004528974564944e-16)
(38.71202187475561 1.518361591359394 -3.138585373391589e-18)
(38.61876541312 1.660798043881418 -1.561646899944555e-16)
(38.5120538620683 1.801814356730716 1.77419910497833e-17)
(38.39539532025116 1.955897066639478 3.945593426618711e-16)
(38.27551059393835 2.139402256489453 8.620954089088362e-16)
(38.16100308348871 2.365056529951092 1.37568240444111e-15)
(38.06313344564899 2.643583454013403 1.676287903739926e-15)
(37.99075483622058 2.967452904892651 1.408785486035951e-15)
(37.9612145365526 3.3539681542504 6.815682304606378e-16)
(37.97495157539262 3.751552003050765 3.001217159354008e-17)
(38.05827625586231 4.200325116715075 -4.906728794941404e-16)
(38.2157417743148 4.676190359521559 -1.553001023314673e-15)
(39.97627863743529 -0.06097136639965505 -1.01309662289666e-18)
(39.99030862187244 -0.04671243309377272 -2.382360125686993e-17)
(39.97798109304772 0.02469111053311189 -4.981700014380272e-17)
(39.96216245245914 0.1032799629492388 -5.59539256390735e-17)
(39.94189424992088 0.1566860447584436 -2.284846624701447e-17)
(39.92370927291249 0.1738463776641224 2.943649228694536e-17)
(39.9013602537883 0.151563154492517 7.610628140118353e-17)
(39.88128707829752 0.09811591268100692 1.052288229048584e-16)
(39.86407029626989 0.03367302806823921 1.01851336457427e-16)
(39.84912874757527 -0.02074515751512308 6.321752915389763e-17)
(39.84022493236374 -0.04783132762204586 1.3693276792463e-18)
(39.83066187859011 -0.03600217713954743 -6.834093035096357e-17)
(39.82186814413635 0.02821413106069619 -8.746553421823667e-17)
(39.81374160888465 0.1280101942580318 -4.966331992308933e-17)
(39.80501599534842 0.2371654890959014 -3.703655279973398e-18)
(39.79393850233083 0.3318450002540932 6.816230810270478e-19)
(39.7787658121636 0.398095228592811 -4.51328354814039e-17)
(39.76244813614092 0.4277477595233636 -1.074460985532817e-16)
(39.7380853557199 0.4222481912623203 -1.272216477805901e-16)
(39.70617601008074 0.3907755530268037 -6.594173842528921e-17)
(39.66936534490115 0.3547455577696324 2.954983674476268e-17)
(39.63309661806962 0.3327913691115477 3.109154261877641e-16)
(39.59717794071376 0.3349891648668489 1.610829711995738e-16)
(39.55968430541329 0.3647349724060854 5.904589456556869e-14)
(39.52309431179588 0.4147844160740305 2.177653149508821e-15)
(39.4869913033336 0.4713841808018682 3.603598584086282e-16)
(39.45008875557158 0.5209256294740443 5.71483311786103e-17)
(39.41164199250497 0.5553048757465991 1.625820637492825e-16)
(39.36865668762722 0.5739169863033771 -2.119049097392888e-16)
(39.31947264295292 0.583986991652008 2.320261642739398e-16)
(39.26537557902578 0.5983832027137949 4.781300047454345e-16)
(39.20798921406649 0.6320348266703009 4.481110670272624e-16)
(39.1491718369993 0.6971037565346437 5.692090183016338e-16)
(39.09098686030459 0.799169223709284 1.03055411564587e-15)
(39.03476160753542 0.9355868318463829 1.483261015506674e-15)
(38.98074358716112 1.096368939235717 1.641047215250038e-15)
(38.92760952780946 1.267786174468481 1.500373427861383e-15)
(38.87317839046346 1.437506946631612 1.1945310924361e-15)
(38.81556311284933 1.599161460396981 8.722172977591996e-16)
(38.75283965690917 1.752761264346397 7.428641497108612e-16)
(38.68382175127816 1.904397225082083 8.10401122615883e-16)
(38.61011450218571 2.064816426570124 7.455642723599117e-16)
(38.53647366174967 2.247576183562588 5.277865831777232e-16)
(38.46984734870811 2.463154930975906 2.949735149581424e-16)
(38.42001142605952 2.720647608847898 -1.282632600523095e-16)
(38.39520542852277 3.014506842049546 -8.770931538890488e-16)
(38.40881241031581 3.353626393564678 -1.567441490074781e-15)
(38.46457021725753 3.709723603494771 -1.838766942718347e-15)
(38.576686158122 4.085851195800662 -1.620709586027438e-15)
(38.74218690971226 4.483006394181395 -1.415701629099915e-15)
(39.97575501613031 -0.06394334354349027 -3.793065380174784e-17)
(39.9898310923215 -0.04832436458742941 -9.433099647982208e-17)
(39.97691417975363 0.02845888946701227 -3.510764666010106e-17)
(39.96091483932975 0.1117435879947662 9.549884390297532e-18)
(39.94058194691176 0.1678806693929382 4.90010156281519e-17)
(39.92240101893488 0.1859863859460002 6.798795794675692e-17)
(39.90032892157024 0.1635449991277341 7.288753338304539e-17)
(39.8812656473109 0.1093778511296717 1.020110487863055e-16)
(39.86568407755097 0.04377097346126282 1.582860033286563e-16)
(39.85181941663464 -0.01242526363089977 1.956383175092787e-16)
(39.84269052346414 -0.04090688946377062 1.658510229575222e-16)
(39.83186024682378 -0.02928834162235069 4.722396941332754e-17)
(39.82078253353059 0.03463323382588172 -6.949950414693881e-17)
(39.80941680833023 0.1348190793882073 -1.248439499856456e-16)
(39.79727508435291 0.2452157531734692 -1.12341505485436e-16)
(39.78430479410022 0.3418978279366532 -4.633468537670933e-17)
(39.7688220440393 0.4111438879599719 5.883930373810369e-17)
(39.75346915596607 0.4457524447689073 1.923988258966742e-16)
(39.73496462894617 0.4470012554458734 3.491026049809814e-16)
(39.70951789051119 0.4226707149318748 4.99165651246139e-16)
(39.6791557975172 0.3916219255813701 5.722522944445481e-16)
(39.64829522319343 0.3725318808015229 6.269331446948836e-16)
(39.61605745736509 0.3758923268134314 4.303526681401297e-16)
(39.58105993401225 0.4056982632331162 7.576829474642781e-16)