/*--------------------------------*- C++ -*----------------------------------*\
| =========                 |                                                 |
| \\      /  F ield         | OpenFOAM: The Open Source CFD Toolbox           |
|  \\    /   O peration     | Version:  v1912                                 |
|   \\  /    A nd           | Website:  www.openfoam.com                      |
|    \\/     M anipulation  |                                                 |
\*---------------------------------------------------------------------------*/
FoamFile
{
    version     2.0;
    format      ascii;
    class       volVectorField;
    location    "1000";
    object      U_0;
}
// * * * * * * * * * * * * * * * * * * * * * * * * * * * * * * * * * * * * * //

dimensions      [0 1 -1 0 0 0 0];


internalField   nonuniform List<vector> 
7500
(
(39.95398594782592 -0.02634091029369414 1.195288139939438e-18)
(39.97407728836845 -0.01943199530465495 1.56753714425141e-18)
(39.94115759515606 -0.00889232500170067 -5.796452965745123e-18)
(39.89136895124802 0.008490221868054435 2.878227811294195e-18)
(39.8244340971897 0.01795682532300931 -2.801298153460252e-18)
(39.75238748833596 0.01884672694472725 1.764917727616493e-17)
(39.69068304566906 0.01035507649980682 2.028823733016745e-17)
(39.64558920757297 -0.001923652630729899 -2.254922401439536e-17)
(39.62023167294155 -0.01176035408381521 -5.61888316182009e-17)
(39.60833922078466 -0.01696927212805836 4.514704476074259e-17)
(39.60082399403557 -0.01622221494078886 9.235997992207329e-17)
(39.58682680888031 -0.01033354324464555 1.870239303197107e-17)
(39.55699030064077 0.002406379921904628 -4.137132116261767e-17)
(39.5114725040065 0.01393807749904332 -7.690391402460882e-17)
(39.4562963566075 0.01953440272782117 -4.617492129157049e-17)
(39.3983357597503 0.0203916940662846 -1.032699574258623e-14)
(39.34513227500761 0.01804961576294831 1.165370743274099e-13)
(39.30132680377119 0.01420350212163697 2.494739739789535e-14)
(39.26808959916096 0.01062713641604552 6.986701245003688e-15)
(39.24354699110312 0.008942386288094918 1.686355788015085e-15)
(39.22428673046372 0.008904462581233362 -2.391023990228663e-16)
(39.20532531517421 0.01147107176921736 -6.612464006089518e-16)
(39.18064167814008 0.01626213200727359 -7.640064414590101e-16)
(39.14753043360145 0.0215949976478547 -8.233574659969284e-16)
(39.10677684873637 0.02594510959206591 -8.960313164596927e-16)
(39.06172154407101 0.02889650921871778 -9.045113272239414e-16)
(39.01612295545055 0.03210267159287294 -7.269204492170456e-16)
(38.97259127459297 0.03539439764868577 -4.927966420107849e-16)
(38.93068966468341 0.03969504538720741 -5.306303891763055e-16)
(38.88745005682951 0.04749911342530257 -5.841043899462675e-16)
(38.8378427510807 0.05687013427788316 -4.286711935350067e-16)
(38.7757233160233 0.06502127065525598 -1.454467497158938e-16)
(38.69507899408031 0.07409122223204205 8.296324190029254e-17)
(38.59152924764874 0.08560635838309372 1.74016734374678e-16)
(38.46271937907606 0.09935582314833295 1.565552788974259e-16)
(38.30848309134725 0.1144388688215961 1.016681877010373e-16)
(38.13164175319933 0.1299871792818341 8.209297596408387e-17)
(37.93792140480238 0.1451526772695428 1.262824474131125e-16)
(37.73058566261584 0.158215346761716 2.165189326120817e-16)
(37.50223114275133 0.1712219155872528 3.215193269685448e-16)
(37.24291153456902 0.1890006623899696 4.126404671444248e-16)
(36.94516372389313 0.2154117097497555 4.083158361545003e-16)
(36.59164388740437 0.2518352524482377 1.397722331217771e-16)
(36.15789895651145 0.3020729976215695 -2.075685023594652e-16)
(35.61224051439589 0.3739745637578558 -2.784919669177206e-16)
(34.89642548060344 0.4863113634692159 -7.129271538408347e-17)
(33.92968456426892 0.6746613024284062 1.640384984093778e-16)
(32.49087251628702 1.022532513056541 1.695061698100339e-16)
(30.36104339667494 1.903921639159068 -8.040376786942721e-17)
(26.60997362533934 1.725758481587974 -4.145158064830998e-16)
(39.98754396434722 -0.00136953936202495 1.267667030172373e-19)
(40.00041930139517 -0.0009139811336006831 3.799099916854678e-17)
(39.99668138266419 0.03368808641714027 -1.595472436365864e-16)
(39.98489004185492 0.06084523141764079 1.430922048069968e-14)
(39.96333799911528 0.07585366658438275 1.207843565537746e-16)
(39.93668051881583 0.07631280860434535 4.105287871602638e-17)
(39.90807332127375 0.06266907195743676 7.885964778730433e-17)
(39.883271659587 0.03551958549371004 -1.350277125079917e-16)
(39.86860053998738 0.01444276062801996 7.671732328838586e-16)
(39.86430213474886 0.004190054186856782 -3.569302126696789e-15)
(39.8630099485154 0.005029948218628978 -1.443442313045987e-14)
(39.85631558902674 0.02228897904416458 -1.44885308147393e-14)
(39.83274988024971 0.05130658547250432 -1.44526870477738e-14)
(39.78315976816394 0.07890988726485881 -1.440347122371727e-14)
(39.70847293274042 0.09558303013416344 -1.267700312346335e-14)
(39.61661496123013 0.09682508438714253 -2.148082565922428e-14)
(39.52298841354204 0.0849169989209184 8.947347727750648e-14)
(39.44115021269841 0.06744777131844973 -2.937253882814799e-14)
(39.37649445059118 0.05024838057906124 -2.903715433243688e-14)
(39.32929999785247 0.0374457806289481 -2.870429363775482e-14)
(39.29818294991248 0.03095839933705165 -2.718407204733212e-14)
(39.2759825105591 0.03341529169248708 -3.55794846347372e-14)
(39.25126035473694 0.04530924179488834 -4.350292292494163e-14)
(39.21594485857209 0.06100908515153892 -4.324611665732726e-14)
(39.16688378953525 0.07345353561022004 -4.297778955256657e-14)
(39.10805764077558 0.07855438750116268 -4.271365075367117e-14)
(39.0465135851133 0.07748680117772916 -4.227079313096798e-14)
(38.98847004902378 0.07435086551471767 -4.199899189552394e-14)
(38.93809353063273 0.07258159925314417 -4.24282783442662e-14)
(38.89779004055402 0.07525315754415957 -4.236231329368579e-14)
(38.86137937278569 0.08813575781184683 -4.204524767837697e-14)
(38.81792961024397 0.1124048887043766 -4.180990341796179e-14)
(38.75622187971535 0.1463236338386839 -4.175910658037273e-14)
(38.66522062279056 0.1859532668103939 -4.176960749088828e-14)
(38.53967860575555 0.2259741913222293 -4.173081464043334e-14)
(38.38219146722098 0.2617773723785221 -4.159872426826389e-14)
(38.19817304522041 0.2914166367870348 -4.136003976631496e-14)
(37.99354429320872 0.3168075980937898 -4.105161711120824e-14)
(37.77349338723293 0.3428851714444367 -4.071323380357848e-14)
(37.53869141787286 0.3749394062547148 -4.034533110969162e-14)
(37.28406574529301 0.4198312094151405 -3.989940941318648e-14)
(36.9998623005556 0.4852835158644205 -3.964206588057012e-14)
(36.67118668845794 0.5797818750135665 -3.970260712674238e-14)
(36.27817773867818 0.7140321524097967 -3.91704759086934e-14)
(35.79839913650819 0.9039101784534539 -3.787414467796666e-14)
(35.20254723888561 1.182441679497277 -3.639921514801215e-14)
(34.4973543417581 1.61063039189241 -3.512089259241026e-14)
(33.68681346011869 2.287515455674773 -3.394022004452904e-14)
(32.92549095789138 3.887357047041258 -3.114185269550646e-14)
(31.93052122572786 3.655415688152257 -2.856694084649484e-14)
(39.97541849545325 -0.02851572625112537 -9.826377972682576e-18)
(39.9961766936891 -0.0195782015855546 7.708838532329907e-17)
(39.98717494911544 0.01823874517736963 -3.351518309253533e-16)
(39.9736162894678 0.05584330289812878 1.429909454829959e-14)
(39.9539790637529 0.07906216073479526 3.246893284781473e-15)
(39.93467601665787 0.0815932896676672 8.06358005018333e-16)
(39.917847154622 0.06332991160437201 1.665640574945266e-16)
(39.90679624397571 0.03109393921923789 1.916419844989654e-16)
(39.90340972607255 0.0005755783975878042 -7.80878624331263e-16)
(39.90726353622497 -0.01750754832199531 3.260342680697419e-15)
(39.91697115891408 -0.01703925443103023 1.426362618418479e-14)
(39.92947766273799 0.01161076230982071 1.426296483030503e-14)
(39.93199465568523 0.06313037117768598 1.420296231751031e-14)
(39.91555283404837 0.122319957172021 1.414016797286555e-14)
(39.87543600163453 0.1686003879841745 1.240413060918406e-14)
(39.81174183111448 0.1879996681361661 2.144288665777258e-14)
(39.73082686197552 0.1795687377528625 -3.055076206565119e-14)
(39.64511876580593 0.1528666607297261 2.895811099945226e-14)
(39.56668830030282 0.12024480958109 2.894636364286992e-14)
(39.50006227008031 0.09065912434995956 2.892887592986439e-14)
(39.44602664009579 0.07147932259668741 1.131316475643935e-15)
(39.40257499893715 0.06828861017356401 1.529615082309211e-13)
(39.36185434572399 0.08385758529384728 -3.135421113237404e-15)
(39.31666932349044 0.1116095608057765 1.012789196106712e-13)
(39.26155555073152 0.1396507254235101 5.600845234003393e-14)
(39.19564670708046 0.1568809017804983 4.38666567383935e-14)
(39.12349326927367 0.1590090343311815 4.253805224044637e-14)
(39.05243891405338 0.1498267929348175 1.392327501723727e-14)
(38.98888657897167 0.1371285218007705 1.573078786405623e-13)
(38.9364995777219 0.1307046087641484 6.776076029996953e-14)
(38.89055873870428 0.1412496914750161 4.533489737141213e-14)
(38.84171002392299 0.1752876285260543 3.994559320537531e-14)
(38.78126093531936 0.2319382586037572 3.819318255305536e-14)
(38.70161631272111 0.304723811297497 3.73465526698061e-14)
(38.5962953097362 0.3828876492513476 3.662143448220942e-14)
(38.46090259804659 0.455331094572719 3.587580945587403e-14)
(38.29505154926948 0.5153171339601716 3.504597281029972e-14)
(38.10208159555366 0.5630405110872443 3.394207798886675e-14)
(37.88765704575898 0.6057019976252176 3.29917885286659e-14)
(37.65618695072178 0.6542210820164409 3.031191913314883e-14)
(37.40752439924524 0.7208540700075888 3.448164949857515e-14)
(37.13641590079003 0.8180325756947485 7.703495494595657e-15)
(36.83369048337104 0.9583095719336815 1.103996763889519e-13)
(36.48659100145239 1.155167687885089 1.56117121922844e-13)
(36.08319594952081 1.425560726298144 4.55922627449806e-14)
(35.60565384288632 1.796158022087268 1.591473937758779e-14)
(35.06443009997479 2.308413073856321 4.886618665165549e-15)
(34.46212733381641 2.915919058888933 -2.086038760974153e-15)
(34.06902553797245 4.367074911771173 -9.707586213158384e-15)
(33.5031195014059 4.523061755976533 -1.635414830070331e-14)
(39.97905845099613 -0.0349839421135316 -2.241860245121315e-17)
(39.98983899824547 -0.01909335349493586 1.876758163049315e-16)
(39.97950713927489 0.02495435932748213 -7.193225217425391e-16)
(39.96182555184603 0.06891163639381394 3.165973225428637e-15)
(39.93939151465857 0.09490151492975964 -1.426594650171601e-14)
(39.91652726938175 0.09672729425589915 -3.113644551910514e-15)
(39.89540497116075 0.0733099727518577 -6.067051212716573e-16)
(39.88148084115902 0.03566037597490541 -1.493882009674496e-16)
(39.87668753082114 -0.0006526494468026201 2.000660612717452e-18)
(39.88029837108285 -0.02443554679134189 2.176563414936571e-17)
(39.88890215043651 -0.02792516411846925 8.367024218315613e-17)
(39.90216745181521 -5.148767687697717e-05 1.540853235464712e-16)
(39.91003752079877 0.05792593022285291 2.076478391593984e-16)
(39.90507844094895 0.1326010739564693 1.984437870314017e-16)
(39.88388920988059 0.2017087083504253 1.053363032770908e-14)
(39.84878905736484 0.2441591794316912 1.806511675548821e-14)
(39.79886690311906 0.2525677125027045 -5.784608611772533e-14)
(39.73779573623258 0.2309794738788172 -1.271499479108889e-14)
(39.67623078155619 0.1939314168771004 -2.953778218848134e-15)
(39.61984234113682 0.1565227093324252 -6.061192219308661e-16)
(39.5713438747772 0.130134386567455 3.630225059275157e-15)
(39.53041558025367 0.1223943241439607 1.474195063766006e-13)
(39.48927365904235 0.1382945989023635 -2.836981366313757e-14)
(39.44274047700682 0.1722745687137427 7.566720175442816e-14)
(39.3864780622986 0.2097215984037941 4.165719941490411e-14)
(39.31775384841348 0.234698223416558 3.202369116921138e-14)
(39.23944254439922 0.2399704595824635 3.418208643693912e-14)
(39.15811576586143 0.2279872070685139 4.17681449359232e-15)
(39.07853008519224 0.2095900459659743 1.642547313143306e-13)
(39.00509871928766 0.1980446131833269 8.465003064772032e-14)
(38.93803026541237 0.2053624055724187 6.495106550087844e-14)
(38.87279924709304 0.2416830246277837 6.022239380885295e-14)
(38.80371910752284 0.3084220960066328 5.905373753739253e-14)
(38.72355100162964 0.3988588248625475 6.813985188917261e-14)
(38.62525637592876 0.5004228351945518 8.936807337020644e-14)
(38.50318856117391 0.5998350810924792 8.878285407916789e-14)
(38.3541546535634 0.6873205621101133 8.818630976620911e-14)
(38.17819466870252 0.7598812211418516 8.759809198523832e-14)
(37.97864342604381 0.8229721778602526 8.702088060368497e-14)
(37.76032040739343 0.8887452162776035 8.643489284323828e-14)
(37.52660681347633 0.9728779939615338 8.602908473679469e-14)
(37.27731009643076 1.091999319394656 5.504656415458673e-14)
(37.00903234089193 1.261729569309055 2.097589261002878e-13)
(36.71804415046552 1.496963913375079 2.101706231421054e-13)
(36.40627189172314 1.813767773431745 1.228140023488415e-13)
(36.07628446513568 2.231608126579725 1.138999018207917e-13)
(35.75821131874022 2.794551097449951 1.086093683191357e-13)
(35.45031449443931 3.372538501981605 1.039916694817909e-13)
(35.31311382915942 4.579461273276694 9.215336185112725e-14)
(35.18488612716066 5.062632273484013 8.087010665437084e-14)
(39.97483104592918 -0.04263435304854839 -1.317528928493452e-17)
(39.9885430600735 -0.02466980436049033 6.864869562254965e-17)
(39.97851866633829 0.02664189932714482 -3.41692591279623e-16)
(39.95981486195554 0.07861832887062503 1.527730645220701e-15)
(39.9357147296659 0.1099026092685097 -1.430288077023846e-14)
(39.91002271209326 0.1121851966439428 2.854759040817991e-17)
(39.88350624009599 0.08480453655864438 4.389448753628466e-17)
(39.86394421063601 0.04007380519303194 -7.60541412537718e-18)
(39.85393544569305 -0.00430125537229169 -5.447572725226624e-17)
(39.85267553201975 -0.03439249397986352 -5.620216391557864e-17)
(39.85597392692328 -0.04139019145476414 -2.160332346400114e-17)
(39.86413304628542 -0.0134301019096269 3.263091676995261e-17)
(39.86993376761673 0.05305320221592979 6.805451485682832e-17)
(39.86769509115189 0.1384453316169736 1.319505674274763e-16)
(39.85316544459172 0.2187050684366962 -1.433157190955509e-14)
(39.82650936265504 0.2737156747860708 -1.428713844904521e-14)
(39.78853677972717 0.2940617284546509 -1.119618458393035e-17)
(39.73861457944383 0.2803916809939467 1.384236796207009e-16)
(39.68561901947427 0.2433872430295582 1.547246683860932e-16)
(39.6352899940256 0.2016476428720266 -2.804135296862569e-17)
(39.59058897270267 0.1710677547540957 -7.875073858615681e-15)
(39.55492488004392 0.160829464715021 -2.867919045043595e-14)
(39.52290030627472 0.1786306446448462 -2.871047755570841e-14)
(39.49185969001961 0.2204200031352878 -2.836759166636976e-14)
(39.45783975955619 0.2712892989448633 -2.810643572309422e-14)
(39.41668070639086 0.3118592957837988 -2.785900842949418e-14)
(39.36336084684712 0.3300136703902434 -2.739134293357142e-14)
(39.29540400908133 0.3256493997951145 -2.422046689873234e-14)
(39.21684710911841 0.3087862707598189 -3.771713675758508e-14)
(39.13408781037656 0.2950502556870263 -5.457356875123163e-14)
(39.05102805748891 0.2984048748956888 -5.360146356576253e-14)
(38.96873120546963 0.331330717071219 -5.207741629336327e-14)
(38.88728651928403 0.3990972953237113 -4.953016657533125e-14)
(38.80294736802023 0.4979838430462026 -5.642738629799711e-14)
(38.70859751693924 0.6164257025993198 -7.655338091432981e-14)
(38.59706972610292 0.7393826154894313 -7.477585878923222e-14)
(38.46320123038438 0.8537832394132303 -7.280164413161248e-14)
(38.30489581813051 0.9530031521463916 -7.051423839602846e-14)
(38.12332815554866 1.039241337665268 -6.776354623339963e-14)
(37.92244330073633 1.122807574700297 -6.444106316626968e-14)
(37.70728068675989 1.220396509961578 -6.031506768429483e-14)
(37.48152712604185 1.351565617900091 -5.72019159186095e-14)
(37.24697797392646 1.534213349546742 -4.768030430678528e-14)
(37.00412812812937 1.782374852713531 -3.567313016623091e-14)
(36.75726362374618 2.107895343686335 -4.228123449172248e-14)
(36.51181754371583 2.516017025135792 -4.844815364037427e-14)
(36.3006021984519 3.050253056669278 -3.767534640237314e-14)
(36.11619282915195 3.57177028651028 -2.489402193947002e-14)
(36.11157019236875 4.507926486147094 -1.096253189670159e-14)
(36.17862901682343 5.132235189476627 4.405671183034195e-15)
(39.97501770322001 -0.04660959698023171 -3.865501899296151e-20)
(39.98803434512939 -0.02818423980960674 -2.635674708429203e-18)
(39.97657534518699 0.03080409335796485 6.128179281845195e-18)
(39.95866008859398 0.09085666580376492 -4.373875395122509e-18)
(39.93628295597762 0.1277913801730384 -5.602828874892885e-17)
(39.91200833518985 0.1319656790579259 -5.786303227946149e-17)
(39.8839383585052 0.1017582332068929 -3.518574172134737e-17)
(39.86049822101379 0.05049581393385396 6.579942317647637e-18)
(39.84505942733859 -0.001467492684549087 4.598067766410344e-17)
(39.83799367495821 -0.03815992356675127 6.571599911686365e-17)
(39.83702304486867 -0.04892939813952086 5.073448506638287e-17)
(39.84098957802404 -0.02292069073105506 8.946190604002326e-19)
(39.84488922089533 0.04826005062444518 -7.1097918739301e-17)
(39.84309376129901 0.1427737787978098 -1.160126850907862e-16)
(39.8314065134625 0.2348700710846231 -2.122952242108146e-16)
(39.80825129024389 0.3032221118516522 -2.485172752730316e-16)
(39.77645259292914 0.3350292913857325 -2.351883096575619e-16)
(39.7322142691817 0.3291889405304171 -1.585047908972369e-16)
(39.68148406923974 0.2939364511083596 -3.330214693380616e-17)
(39.63142019338242 0.2490871051733564 -2.114335614494751e-17)
(39.58523893733225 0.2134670868886493 -5.638536332353414e-17)
(39.54751953679543 0.1977293466753882 -1.348174706218097e-16)
(39.51352725636661 0.2102826176954571 -2.780837023034484e-16)
(39.48143496780739 0.2496561470987589 -4.6136372117886e-16)
(39.44938694665179 0.3033332305398172 -6.986340339950279e-16)
(39.4140552750213 0.3531681434352793 -9.859882828093601e-16)
(39.37307301499488 0.3844440927128144 -1.287113504168526e-15)
(39.32229762406346 0.3944583358365159 -8.569791657617077e-16)
(39.26220434419506 0.3891446542700085 -1.974168934792405e-14)
(39.19749997457817 0.3823769092627559 1.043161764661766e-13)
(39.13154790899277 0.3896516167222963 2.074468555344212e-14)
(39.06400196111532 0.4246189527963566 7.479266116456994e-16)
(38.99377716118966 0.4952805560795617 -5.312245737574867e-15)
(38.91889206604404 0.6006645804153052 -6.750871805568914e-15)
(38.83521769531583 0.73082716041158 -7.884293860314227e-15)
(38.73740833499352 0.8709280768258901 -9.208200468398803e-15)
(38.62070503412591 1.006157486341924 -1.069876974594687e-14)
(38.48226545469309 1.126894095725733 -1.226421690492292e-14)
(38.32196528831535 1.232952738494237 -1.386802256800823e-14)
(38.14347894052763 1.332924087131266 -1.553249012041596e-14)
(37.95216010357093 1.442745804555943 -1.726727959487244e-14)
(37.75288032287537 1.582122334876618 -1.906658025715402e-14)
(37.55085031812538 1.769588809183616 -2.111687345297428e-14)
(37.35115556501799 2.018635787846598 -2.317721866256137e-14)
(37.16135428867774 2.339401277520856 -2.557321865256551e-14)
(36.98890167429031 2.727394700911996 -2.798665481014354e-14)
(36.86124755776429 3.219175172924695 -3.043054891401753e-14)
(36.76956752848979 3.695480025521155 -3.165992360084285e-14)
(36.81034345218652 4.414102832695469 -3.172130418915516e-14)
(36.95120129024679 5.039852781109513 -2.995758683557822e-14)
(39.9743550932874 -0.05012722551481163 2.205171115580286e-18)
(39.98779767120337 -0.03099544916099218 5.621417217169057e-18)
(39.97456755752619 0.03395009272671291 3.593963664198435e-18)
(39.95624413428924 0.1001049476981335 -1.70970442617234e-17)
(39.93424758820539 0.1419057234277769 -4.834581421375532e-17)
(39.91238254546561 0.1491999430672036 -6.5114277536102e-17)
(39.88547855739036 0.1192031034396154 -3.306603877464695e-17)
(39.8612078111385 0.06365420805818651 4.236768902011349e-17)
(39.84225221940185 0.005355344853828913 1.22100658736447e-16)
(39.82971371898692 -0.03726764908918932 1.622694142738761e-16)
(39.82440833153522 -0.05218021666902836 1.334117446467463e-16)
(39.82317487599611 -0.02885396044282265 3.054898425571626e-17)
(39.82340761750594 0.04450209013371748 -1.01503488195149e-16)
(39.82138056364201 0.1444360932444952 -2.017455626215977e-16)
(39.81331990486867 0.2448647671471012 -2.350802190062799e-16)
(39.79565512744458 0.3245380722727366 -1.838748260079221e-16)
(39.77139768959149 0.3688554584459733 -7.875644929467842e-17)
(39.73725983903216 0.3735635924341025 5.456240939638345e-17)
(39.69274724781493 0.3438496149088208 1.710301949644017e-16)
(39.64518269779074 0.2988477327562564 1.87589332428275e-16)
(39.59803016341693 0.260487501447245 1.434578802679656e-16)
(39.55669568939592 0.241825421993078 1.145159627206441e-16)
(39.51800385128883 0.2510210527575951 1.096948875300107e-17)
(39.48056991713658 0.2876808049404363 -1.096148203365256e-16)
(39.44489792074238 0.3405688131976747 -1.151374237880752e-16)
(39.40813398290965 0.3934424350514402 4.019958804097876e-17)
(39.36853689857107 0.431519250541621 9.400194966086213e-17)
(39.32274942572355 0.449599463864005 4.652622758356523e-17)
(39.26910748532569 0.4516709124271145 -1.00226566923079e-14)
(39.21078839354134 0.4497343134983308 2.353314580747337e-13)
(39.15061312477845 0.4597256783786017 -7.966026495755915e-16)
(39.0893528673504 0.4963038422769927 -7.234467801701294e-16)
(39.02826807084642 0.5690997094125582 -6.410857806136185e-16)
(38.9675556757245 0.679692526799932 -5.214050184276288e-16)
(38.90473673435309 0.8203759304134842 -4.933485081284833e-16)
(38.83502251585212 0.9767687651766397 -5.60735423930802e-16)
(38.75259828854882 1.132721189882124 -7.43990929820106e-16)
(38.65313941159502 1.276129913578095 -1.060792376127051e-15)
(38.53407904720454 1.403879013746721 -1.48161487597082e-15)
(38.39471721632965 1.521888120513606 -1.912650042374989e-15)
(38.23801803958163 1.643792558842432 -2.203973751797133e-15)
(38.07045077014975 1.787931704566116 -2.284105214918175e-15)
(37.90041291166176 1.972512220053981 -2.276733686417406e-15)
(37.73688396722152 2.210877117060998 -2.545560499009579e-15)
(37.59081320261156 2.513048461453737 -3.197756521435259e-15)
(37.46993350455175 2.870251604065206 -4.256274681778791e-15)
(37.39588882130377 3.309089178164562 -5.928205207925074e-15)
(37.3635993146539 3.746105529816812 -8.3939622924943e-15)
(37.42695355119022 4.303362192335274 -1.105277628373357e-14)
(37.5874729344968 4.866951106286018 -1.479048408806784e-14)
(39.97401169165203 -0.05319569819586872 4.004092821215879e-18)
(39.98734386377197 -0.03238256278002893 2.894329516972206e-18)
(39.97293790308317 0.03874262307828544 -1.587131299751669e-17)
(39.95410813230621 0.1102705341473526 -4.641875475612802e-17)
(39.93200419458881 0.1554529331504068 -6.248984113890145e-17)
(39.9117788664945 0.1647386390276608 -3.846921085286975e-17)
(39.88692352901678 0.1355065724331782 3.393703179383209e-17)
(39.86390907642833 0.07868370522397121 1.192507206838193e-16)
(39.84404101008096 0.01648229381547278 1.558265280549824e-16)
(39.82850735935317 -0.03119317717178368 1.158416034614813e-16)
(39.82049373940237 -0.04982173543639294 1.680901234649429e-17)
(39.8134477124806 -0.0287904198524087 -1.056288961316204e-16)
(39.80830957190178 0.04409768524184634 -1.72710912926087e-16)
(39.80309964330013 0.1466408802966681 -1.543184465555957e-16)
(39.79534790486413 0.2520505530094944 -7.580781707739377e-17)
(39.78145918286793 0.3387173624829703 1.592992465986796e-17)
(39.76237190358093 0.3929468185555474 7.906265443290015e-17)
(39.73831895356309 0.4080482037553531 9.863256946533681e-17)
(39.70255262799825 0.3869942046839025 7.852622657785411e-17)
(39.66108694451279 0.3457788292068936 1.849216598651354e-17)
(39.61717570739557 0.3077190212579609 -9.194952205257185e-17)
(39.57663106515536 0.2880262713268247 -1.3790168614748e-16)
(39.53756928752868 0.2952215402194165 -1.189853884354658e-16)
(39.49858346475362 0.330009362328742 5.80499020512197e-14)
(39.46100975470467 0.3825015893900853 -3.608736769464942e-16)
(39.42270187114674 0.4375173316407405 -2.699902777742162e-16)
(39.38223612341172 0.4809392610673085 -2.652300628156218e-16)
(39.33784878727698 0.5057523646017599 -2.43235395671245e-17)
(39.28696733954128 0.5145056317025656 -5.149449632618387e-15)
(39.23114221753698 0.5172575747906221 1.120835974063423e-13)
(39.17320553636411 0.5291311792864591 2.749106142603505e-14)
(39.11407833647493 0.5650950294035504 7.320277201322893e-15)
(39.05499462343853 0.6359101669543553 2.606753278262086e-15)
(38.99717977106813 0.7450658338386532 1.641701117631863e-15)
(38.94002363069355 0.8871983307257933 1.461699188768878e-15)
(38.88161378206466 1.049840911361758 1.239315094510436e-15)
(38.81907185294421 1.217714364227982 8.335762301111537e-16)
(38.74899261877074 1.377958501975562 3.503662588998694e-16)
(38.66798202830728 1.525238550623083 -3.989460312952971e-17)
(38.57338888093044 1.662560866219299 -1.65344072751954e-16)
(38.46550243011387 1.799808990148381 3.579554075823104e-17)
(38.34822273903378 1.952107001840293 4.288587729166985e-16)
(38.22844079241281 2.135675546611471 9.014583431269249e-16)
(38.11474343674207 2.362529914145282 1.404596805160933e-15)
(38.01822945184411 2.64250084926801 1.671371233813082e-15)
(37.94749114555082 2.967245275447179 1.365153523074958e-15)
(37.91958544800465 3.353636077668491 6.32611808581096e-16)
(37.93483123367506 3.750391365944851 5.765954086594142e-18)
(38.01983197306162 4.198680539806887 -4.870870130480357e-16)
(38.17954876121215 4.67512037571788 -1.53809464048266e-15)
(39.97321780039045 -0.05593091094927031 -9.550507470185651e-19)
(39.986948461713 -0.03334893996797752 -2.432004239811256e-17)
(39.97166530774182 0.04358568022784433 -5.022328170212321e-17)
(39.95246282722407 0.1200214146894063 -5.533932930211095e-17)
(39.93009960787591 0.1679513016236945 -1.884238143002137e-17)
(39.91043186408941 0.1783576900915726 3.59917455068927e-17)
(39.8866551468776 0.1492330059042514 8.254640552217775e-17)
(39.86535661901496 0.09194881026397138 1.096867737556964e-16)
(39.84680622504133 0.02779664006056849 1.01358124187725e-16)
(39.83104736917493 -0.02308779711074936 5.657390403304644e-17)
(39.82179923997901 -0.04431393930604159 -1.115289148757316e-17)
(39.81039102871437 -0.02447996798513318 -8.008711798838883e-17)
(39.80058342734479 0.04769117021948341 -9.162159497558349e-17)
(39.79123741576456 0.151130842961557 -4.638008064148513e-17)
(39.78093339161254 0.2592579384252872 2.141874420051828e-18)
(39.76756225069666 0.3498459715255495 5.065976369113439e-18)
(39.75058342279388 0.41005302159061 -4.291119142484796e-17)
(39.73244990891935 0.4330702948144764 -1.05441623596691e-16)
(39.70493777201225 0.4213015085600595 -1.21717017838539e-16)
(39.67081462459922 0.3864477881070728 -5.760838084775265e-17)
(39.63246971828627 0.3508667460411257 3.959857543880571e-17)
(39.59546282479572 0.3317597199755242 3.234692513107013e-16)
(39.55839409388787 0.3381688741970574 1.671070910855164e-16)
(39.52029069879119 0.3718381678260473 5.904525735653808e-14)
(39.4832763930607 0.4239150905694145 2.128339836449563e-15)
(39.44661387548955 0.4800769175193988 3.58408939241407e-16)
(39.4091900028182 0.5272869299992078 6.57709238381824e-17)
(39.3700499636154 0.558415700720826 1.66466883569917e-16)
(39.32593419914616 0.5743420277368296 -2.266651656233974e-16)
(39.27577430963633 0.5833751478500365 2.125709296213659e-16)
(39.22107857602391 0.5991557786589446 4.487106108706895e-16)
(39.16339548716773 0.6364919803442569 4.337714664542677e-16)
(39.10469329793587 0.7065912446095128 5.927244507168913e-16)
(39.04698663899318 0.8136364278033077 1.081047493134601e-15)
(38.99142790100231 0.9535719055487543 1.522297349993551e-15)
(38.93805303203908 1.115397485601523 1.644696883417107e-15)
(38.88526761411256 1.285138495303026 1.471628828225519e-15)
(38.8308281219865 1.451115315081384 1.152172577974607e-15)
(38.77286649755197 1.608022989254976 8.378036871654159e-16)
(38.70941333928801 1.756869797088313 7.27947444142637e-16)
(38.63948827063145 1.904629652407319 8.034316781486696e-16)
(38.56503728698493 2.062804353791848 7.310675369175761e-16)
(38.49108118822858 2.245010660354997 5.012669001833795e-16)
(38.42469647737849 2.461204961605518 2.542736692190322e-16)
(38.3756334618867 2.719734343205237 -1.914424891028412e-16)
(38.35196853404999 3.014350054494566 -9.523634465463184e-16)
(38.3668402392569 3.353500971642753 -1.621523770041822e-15)
(38.42380277725392 3.708890592822288 -1.850615061012051e-15)
(38.53718628369344 4.084338993941989 -1.594442993795247e-15)
(38.70448230995702 4.48176700399261 -1.373320974315102e-15)
(39.97268368433154 -0.05841091794375242 -3.719752939256023e-17)
(39.98660037312732 -0.03384711983432626 -8.887022012446767e-17)
(39.9707224685525 0.04878530188299711 -2.99173030734808e-17)
(39.95132802401537 0.1297879906299808 1.033913557462155e-17)
(39.92874296822391 0.1802033865220365 5.225307597882275e-17)
(39.90926481336562 0.1913242132554484 7.260676186701865e-17)
(39.88591657487359 0.1617213767542995 7.793971156866357e-17)
(39.86565678822542 0.1035375340144624 1.075226284835225e-16)
(39.84861555421349 0.03809586777674794 1.607155397611225e-16)
(39.83383554093805 -0.01448768648348745 1.907442824038053e-16)
(39.82448440247195 -0.03721080709612645 1.511330713952776e-16)
(39.81132729965784 -0.01747320599579876 2.926911272626067e-17)
(39.79902336315928 0.05458081237802798 -7.969011340497303e-17)
(39.78640883424941 0.1585851154029685 -1.247573437854085e-16)
(39.77287233430729 0.268141491122302 -1.050884023340019e-16)
(39.75803031276078 0.3608636559598566 -3.592477382809344e-17)
(39.74082827202682 0.424373208686203 7.013919125465291e-17)
(39.72448537208565 0.4524182998431796 2.047641588100118e-16)
(39.70292055157246 0.4477933689435082 3.623143372522639e-16)
(39.67529485267026 0.4198700329983807 5.089536878478701e-16)
(39.64330146009872 0.3887443004824979 5.757380902433159e-16)
(39.61137739780291 0.3721079475529193 6.243069367089479e-16)
(39.57771710467573 0.3793501768084167 4.175197970729726e-16)