# wallShearStress  FACE_DATA 600
# x  y  z  wallShearStress_x  wallShearStress_y  wallShearStress_z
2.99912e-05 0 0.05 -3.9394 -0.856036 0
9.02865e-05 0 0.05 -2.3874 -0.363804 0
0.000151211 0 0.05 -1.67127 -0.12605 0
0.00021277 0 0.05 -1.27629 -0.0504694 0
0.000274971 0 0.05 -1.08026 -0.0250573 0
0.000337822 0 0.05 -0.95684 -0.0167272 0
0.000401327 0 0.05 -0.866417 -0.0124383 0
0.000465495 0 0.05 -0.796919 -0.00962774 0
0.000530332 0 0.05 -0.741432 -0.00772927 0
0.000595846 0 0.05 -0.695719 -0.00638993 0
0.000662042 0 0.05 -0.657177 -0.00538075 0
0.000728929 0 0.05 -0.624125 -0.00460522 0
0.000796514 0 0.05 -0.595349 -0.00399677 0
0.000864803 0 0.05 -0.569984 -0.00350522 0
0.000933804 0 0.05 -0.54741 -0.0031023 0
0.00100353 0 0.05 -0.527141 -0.00276931 0
0.00107397 0 0.05 -0.508801 -0.00248926 0
0.00114516 0 0.05 -0.492097 -0.00225113 0
0.00121708 0 0.05 -0.476796 -0.00204671 0
0.00128976 0 0.05 -0.46271 -0.00186968 0
0.00136319 0 0.05 -0.449683 -0.00171565 0
0.00143739 0 0.05 -0.437583 -0.00158046 0
0.00151236 0 0.05 -0.426305 -0.00146092 0
0.00158812 0 0.05 -0.415756 -0.00135467 0
0.00166466 0 0.05 -0.40586 -0.00125979 0
0.00174201 0 0.05 -0.396551 -0.00117478 0
0.00182016 0 0.05 -0.387771 -0.0010982 0
0.00189912 0 0.05 -0.37947 -0.00102892 0
0.00197891 0 0.05 -0.371605 -0.000966043 0
0.00205953 0 0.05 -0.364138 -0.000908751 0
0.00214099 0 0.05 -0.357036 -0.000856371 0
0.0022233 0 0.05 -0.350268 -0.000808383 0
0.00230647 0 0.05 -0.343809 -0.000764325 0
0.00239051 0 0.05 -0.337635 -0.00072374 0
0.00247542 0 0.05 -0.331725 -0.000686253 0
0.00256122 0 0.05 -0.32606 -0.000651551 0
0.00264791 0 0.05 -0.320623 -0.000619362 0
0.00273551 0 0.05 -0.315398 -0.000589442 0
0.00282402 0 0.05 -0.310372 -0.000561582 0
0.00291346 0 0.05 -0.305531 -0.000535607 0
0.00300382 0 0.05 -0.300865 -0.000511341 0
0.00309513 0 0.05 -0.296362 -0.000488634 0
0.00318739 0 0.05 -0.292013 -0.00046735 0
0.00328062 0 0.05 -0.287809 -0.000447367 0
0.00337481 0 0.05 -0.283741 -0.000428578 0
0.00346999 0 0.05 -0.279803 -0.000410891 0
0.00356616 0 0.05 -0.275987 -0.000394226 0
0.00366334 0 0.05 -0.272286 -0.000378511 0
0.00376152 0 0.05 -0.268696 -0.000363668 0
0.00386073 0 0.05 -0.265209 -0.00034963 0
0.00396098 0 0.05 -0.261821 -0.000336339 0
0.00406227 0 0.05 -0.258528 -0.000323746 0
0.00416462 0 0.05 -0.255324 -0.000311801 0
0.00426803 0 0.05 -0.252205 -0.000300459 0
0.00437253 0 0.05 -0.249169 -0.000289679 0
0.00447811 0 0.05 -0.24621 -0.000279427 0
0.0045848 0 0.05 -0.243326 -0.000269672 0
0.00469259 0 0.05 -0.240513 -0.00026038 0
0.00480152 0 0.05 -0.237768 -0.000251522 0
0.00491157 0 0.05 -0.235088 -0.000243072 0
0.00502278 0 0.05 -0.232472 -0.000235003 0
0.00513514 0 0.05 -0.229915 -0.000227292 0
0.00524868 0 0.05 -0.227416 -0.000219919 0
0.0053634 0 0.05 -0.224973 -0.000212865 0
0.00547932 0 0.05 -0.222583 -0.000206114 0
0.00559644 0 0.05 -0.220245 -0.000199649 0
0.00571479 0 0.05 -0.217956 -0.000193453 0
0.00583437 0 0.05 -0.215715 -0.000187512 0
0.0059552 0 0.05 -0.21352 -0.000181811 0
0.00607729 0 0.05 -0.211369 -0.000176338 0
0.00620065 0 0.05 -0.209261 -0.000171082 0
0.0063253 0 0.05 -0.207195 -0.000166031 0
0.00645125 0 0.05 -0.205168 -0.000161173 0
0.00657851 0 0.05 -0.20318 -0.000156501 0
0.0067071 0 0.05 -0.201229 -0.000152004 0
0.00683703 0 0.05 -0.199315 -0.000147675 0
0.00696832 0 0.05 -0.197435 -0.000143508 0
0.00710098 0 0.05 -0.195589 -0.000139492 0
0.00723501 0 0.05 -0.193776 -0.00013562 0
0.00737045 0 0.05 -0.191995 -0.000131887 0
0.0075073 0 0.05 -0.190245 -0.000128285 0
0.00764557 0 0.05 -0.188525 -0.000124808 0
0.00778529 0 0.05 -0.186834 -0.000121452 0
0.00792647 0 0.05 -0.185171 -0.00011821 0
0.00806912 0 0.05 -0.183535 -0.000115077 0
0.00821325 0 0.05 -0.181926 -0.000112051 0
0.00835889 0 0.05 -0.180343 -0.000109125 0
0.00850605 0 0.05 -0.178786 -0.000106295 0
0.00865474 0 0.05 -0.177252 -0.000103558 0
0.00880498 0 0.05 -0.175743 -0.00010091 0
0.00895679 0 0.05 -0.174256 -9.83459e-05 0
0.00911018 0 0.05 -0.172793 -9.58636e-05 0
0.00926517 0 0.05 -0.171351 -9.34593e-05 0
0.00942178 0 0.05 -0.169931 -9.11297e-05 0
0.00958003 0 0.05 -0.168531 -8.88718e-05 0
0.00973992 0 0.05 -0.167152 -8.66832e-05 0
0.00990148 0 0.05 -0.165793 -8.45616e-05 0
0.0100647 0 0.05 -0.164454 -8.25044e-05 0
0.0102297 0 0.05 -0.163133 -8.0509e-05 0
0.0103963 0 0.05 -0.16183 -7.85728e-05 0
0.0105647 0 0.05 -0.160546 -7.66937e-05 0
0.0107349 0 0.05 -0.159279 -7.48695e-05 0
0.0109068 0 0.05 -0.15803 -7.30984e-05 0
0.0110806 0 0.05 -0.156797 -7.13783e-05 0
0.0112561 0 0.05 -0.15558 -6.97074e-05 0
0.0114335 0 0.05 -0.15438 -6.80839e-05 0
0.0116127 0 0.05 -0.153196 -6.65059e-05 0
0.0117938 0 0.05 -0.152026 -6.49721e-05 0
0.0119768 0 0.05 -0.150872 -6.34814e-05 0
0.0121617 0 0.05 -0.149732 -6.20321e-05 0
0.0123485 0 0.05 -0.148607 -6.06227e-05 0
0.0125372 0 0.05 -0.147496 -5.92518e-05 0
0.012728 0 0.05 -0.146399 -5.79179e-05 0
0.0129207 0 0.05 -0.145315 -5.662e-05 0
0.0131154 0 0.05 -0.144244 -5.53567e-05 0
0.0133122 0 0.05 -0.143186 -5.4127e-05 0
0.013511 0 0.05 -0.142141 -5.29297e-05 0
0.0137119 0 0.05 -0.141109 -5.17639e-05 0
0.0139149 0 0.05 -0.140088 -5.06285e-05 0
0.01412 0 0.05 -0.13908 -4.95226e-05 0
0.0143272 0 0.05 -0.138083 -4.84455e-05 0
0.0145366 0 0.05 -0.137098 -4.7396e-05 0
0.0147482 0 0.05 -0.136124 -4.63733e-05 0
0.014962 0 0.05 -0.135161 -4.53767e-05 0
0.015178 0 0.05 -0.134208 -4.44052e-05 0
0.0153963 0 0.05 -0.133267 -4.34581e-05 0
0.0156168 0 0.05 -0.132336 -4.25346e-05 0
0.0158397 0 0.05 -0.131415 -4.1634e-05 0
0.0160649 0 0.05 -0.130504 -4.07556e-05 0
0.0162924 0 0.05 -0.129604 -3.98987e-05 0
0.0165223 0 0.05 -0.128712 -3.90628e-05 0
0.0167546 0 0.05 -0.127831 -3.82473e-05 0
0.0169893 0 0.05 -0.126959 -3.74517e-05 0
0.0172265 0 0.05 -0.126096 -3.66753e-05 0
0.0174661 0 0.05 -0.125242 -3.59175e-05 0
0.0177082 0 0.05 -0.124397 -3.51777e-05 0
0.0179529 0 0.05 -0.123561 -3.44556e-05 0
0.0182001 0 0.05 -0.122733 -3.37505e-05 0
0.0184499 0 0.05 -0.121914 -3.3062e-05 0
0.0187023 0 0.05 -0.121103 -3.23897e-05 0
0.0189573 0 0.05 -0.120301 -3.1733e-05 0
0.019215 0 0.05 -0.119506 -3.10916e-05 0
0.0194754 0 0.05 -0.118719 -3.04648e-05 0
0.0197385 0 0.05 -0.11794 -2.98524e-05 0
0.0200043 0 0.05 -0.117169 -2.92542e-05 0
0.0202729 0 0.05 -0.116406 -2.86698e-05 0
0.0205443 0 0.05 -0.11565 -2.80986e-05 0
0.0208186 0 0.05 -0.114901 -2.75405e-05 0
0.0210957 0 0.05 -0.114159 -2.69949e-05 0
0.0213757 0 0.05 -0.113425 -2.64615e-05 0
0.0216586 0 0.05 -0.112697 -2.59401e-05 0
0.0219444 0 0.05 -0.111976 -2.54302e-05 0
0.0222333 0 0.05 -0.111262 -2.49316e-05 0
0.0225251 0 0.05 -0.110555 -2.44439e-05 0
0.02282 0 0.05 -0.109855 -2.39669e-05 0
0.023118 0 0.05 -0.109161 -2.35005e-05 0
0.0234191 0 0.05 -0.108473 -2.30443e-05 0
0.0237233 0 0.05 -0.107791 -2.25982e-05 0
0.0240307 0 0.05 -0.107116 -2.21618e-05 0
0.0243413 0 0.05 -0.106447 -2.17348e-05 0
0.0246551 0 0.05 -0.105784 -2.1317e-05 0
0.0249722 0 0.05 -0.105127 -2.09082e-05 0
0.0252926 0 0.05 -0.104476 -2.05078e-05 0
0.0256164 0 0.05 -0.103831 -2.0116e-05 0
0.0259435 0 0.05 -0.103191 -1.97326e-05 0
0.0262741 0 0.05 -0.102557 -1.93573e-05 0
0.0266081 0 0.05 -0.101928 -1.899e-05 0
0.0269456 0 0.05 -0.101305 -1.86305e-05 0
0.0272865 0 0.05 -0.100688 -1.82786e-05 0
0.0276311 0 0.05 -0.100076 -1.79341e-05 0
0.0279792 0 0.05 -0.0994686 -1.75967e-05 0
0.028331 0 0.05 -0.0988668 -1.72662e-05 0
0.0286865 0 0.05 -0.0982702 -1.69423e-05 0
0.0290456 0 0.05 -0.0976786 -1.66252e-05 0
0.0294085 0 0.05 -0.0970921 -1.63148e-05 0
0.0297752 0 0.05 -0.0965105 -1.60107e-05 0
0.0301457 0 0.05 -0.0959338 -1.57129e-05 0
0.0305201 0 0.05 -0.0953619 -1.54212e-05 0
0.0308984 0 0.05 -0.0947947 -1.51355e-05 0
0.0312806 0 0.05 -0.0942323 -1.48556e-05 0
0.0316668 0 0.05 -0.0936744 -1.45813e-05 0
0.032057 0 0.05 -0.0931212 -1.43124e-05 0
0.0324513 0 0.05 -0.0925725 -1.40487e-05 0
0.0328497 0 0.05 -0.0920283 -1.37903e-05 0
0.0332523 0 0.05 -0.0914886 -1.35373e-05 0
0.0336591 0 0.05 -0.0909532 -1.32893e-05 0
0.0340701 0 0.05 -0.0904221 -1.30464e-05 0
0.0344854 0 0.05 -0.0898952 -1.28083e-05 0
0.034905 0 0.05 -0.0893726 -1.2575e-05 0
0.035329 0 0.05 -0.0888542 -1.23463e-05 0
0.0357575 0 0.05 -0.0883399 -1.2122e-05 0
0.0361904 0 0.05 -0.0878296 -1.1902e-05 0
0.0366278 0 0.05 -0.0873234 -1.1686e-05 0
0.0370697 0 0.05 -0.0868212 -1.14743e-05 0
0.0375163 0 0.05 -0.0863229 -1.12669e-05 0
0.0379676 0 0.05 -0.0858286 -1.10636e-05 0
0.0384235 0 0.05 -0.085338 -1.08643e-05 0
0.0388842 0 0.05 -0.0848513 -1.0669e-05 0
0.0393497 0 0.05 -0.0843684 -1.04774e-05 0
0.0398201 0 0.05 -0.0838892 -1.02896e-05 0
0.0402953 0 0.05 -0.0834136 -1.01054e-05 0
0.0407756 0 0.05 -0.0829417 -9.92448e-06 0
0.0412608 0 0.05 -0.0824734 -9.7468e-06 0
0.0417511 0 0.05 -0.0820087 -9.57254e-06 0
0.0422465 0 0.05 -0.0815475 -9.40164e-06 0
0.0427471 0 0.05 -0.0810899 -9.23407e-06 0
0.0432528 0 0.05 -0.0806357 -9.0698e-06 0
0.0437639 0 0.05 -0.0801849 -8.90871e-06 0
0.0442803 0 0.05 -0.0797375 -8.75074e-06 0
0.0448021 0 0.05 -0.0792935 -8.59578e-06 0
0.0453293 0 0.05 -0.0788528 -8.44376e-06 0
0.045862 0 0.05 -0.0784153 -8.29445e-06 0
0.0464003 0 0.05 -0.0779811 -8.14768e-06 0
0.0469442 0 0.05 -0.0775502 -8.00358e-06 0
0.0474938 0 0.05 -0.0771224 -7.86223e-06 0
0.0480491 0 0.05 -0.0766978 -7.7236e-06 0
0.0486101 0 0.05 -0.0762764 -7.5876e-06 0
0.0491771 0 0.05 -0.075858 -7.45419e-06 0
0.0497499 0 0.05 -0.0754427 -7.32332e-06 0
0.0503287 0 0.05 -0.0750304 -7.19495e-06 0
0.0509136 0 0.05 -0.0746212 -7.069e-06 0
0.0515046 0 0.05 -0.0742149 -6.94535e-06 0
0.0521017 0 0.05 -0.0738115 -6.82373e-06 0
0.052705 0 0.05 -0.0734111 -6.70408e-06 0
0.0533147 0 0.05 -0.0730136 -6.58669e-06 0
0.0539307 0 0.05 -0.072619 -6.47154e-06 0
0.0545531 0 0.05 -0.0722273 -6.35856e-06 0
0.055182 0 0.05 -0.0718383 -6.24771e-06 0
0.0558175 0 0.05 -0.0714522 -6.13893e-06 0
0.0564596 0 0.05 -0.0710688 -6.03218e-06 0
0.0571084 0 0.05 -0.0706881 -5.92741e-06 0
0.057764 0 0.05 -0.0703102 -5.82459e-06 0
0.0584264 0 0.05 -0.0699349 -5.72353e-06 0
0.0590957 0 0.05 -0.0695624 -5.62401e-06 0
0.059772 0 0.05 -0.0691924 -5.52617e-06 0
0.0604553 0 0.05 -0.0688252 -5.43014e-06 0
0.0611458 0 0.05 -0.0684605 -5.33596e-06 0
0.0618434 0 0.05 -0.0680984 -5.24354e-06 0
0.0625484 0 0.05 -0.0677389 -5.15281e-06 0
0.0632607 0 0.05 -0.0673819 -5.06378e-06 0
0.0639804 0 0.05 -0.0670274 -4.97639e-06 0
0.0647077 0 0.05 -0.0666754 -4.8906e-06 0
0.0654425 0 0.05 -0.0663258 -4.80633e-06 0
0.0661849 0 0.05 -0.0659787 -4.72343e-06 0
0.0669352 0 0.05 -0.0656341 -4.6417e-06 0
0.0676932 0 0.05 -0.0652918 -4.5614e-06 0
0.0684592 0 0.05 -0.064952 -4.4826e-06 0
0.0692331 0 0.05 -0.0646146 -4.40529e-06 0
0.0700151 0 0.05 -0.0642795 -4.32941e-06 0
0.0708053 0 0.05 -0.0639468 -4.25493e-06 0
0.0716037 0 0.05 -0.0636163 -4.1818e-06 0
0.0724104 0 0.05 -0.0632882 -4.11003e-06 0
0.0732256 0 0.05 -0.0629623 -4.03956e-06 0
0.0740492 0 0.05 -0.0626387 -3.97036e-06 0
0.0748815 0 0.05 -0.0623173 -3.90209e-06 0
0.0757224 0 0.05 -0.0619981 -3.83474e-06 0
0.0765721 0 0.05 -0.0616812 -3.76862e-06 0
0.0774306 0 0.05 -0.0613665 -3.70374e-06 0
0.0782981 0 0.05 -0.061054 -3.64006e-06 0
0.0791747 0 0.05 -0.0607436 -3.57758e-06 0
0.0800604 0 0.05 -0.0604354 -3.51623e-06 0
0.0809553 0 0.05 -0.0601293 -3.456e-06 0
0.0818596 0 0.05 -0.0598254 -3.39686e-06 0
0.0827733 0 0.05 -0.0595235 -3.3388e-06 0
0.0836965 0 0.05 -0.0592236 -3.28177e-06 0
0.0846294 0 0.05 -0.0589259 -3.22545e-06 0
0.0855719 0 0.05 -0.0586302 -3.16985e-06 0
0.0865243 0 0.05 -0.0583365 -3.11524e-06 0
0.0874867 0 0.05 -0.0580449 -3.06168e-06 0
0.0884591 0 0.05 -0.0577554 -3.00911e-06 0
0.0894416 0 0.05 -0.0574678 -2.95752e-06 0
0.0904344 0 0.05 -0.0571822 -2.90686e-06 0
0.0914375 0 0.05 -0.0568986 -2.85714e-06 0
0.0924511 0 0.05 -0.0566169 -2.8083e-06 0
0.0934752 0 0.05 -0.0563371 -2.76036e-06 0
0.09451 0 0.05 -0.0560593 -2.71326e-06 0
0.0955557 0 0.05 -0.0557833 -2.66674e-06 0
0.0966122 0 0.05 -0.0555093 -2.6207e-06 0
0.0976798 0 0.05 -0.0552372 -2.57555e-06 0
0.0987584 0 0.05 -0.054967 -2.53122e-06 0
0.0998484 0 0.05 -0.0546986 -2.48772e-06 0
0.10095 0 0.05 -0.0544321 -2.44499e-06 0
0.102062 0 0.05 -0.0541675 -2.40304e-06 0
0.103187 0 0.05 -0.0539047 -2.36185e-06 0
0.104323 0 0.05 -0.0536437 -2.32144e-06 0
0.105471 0 0.05 -0.0533845 -2.28171e-06 0
0.106631 0 0.05 -0.0531271 -2.24274e-06 0
0.107803 0 0.05 -0.0528714 -2.2042e-06 0
0.108987 0 0.05 -0.0526175 -2.16608e-06 0
0.110184 0 0.05 -0.0523654 -2.12857e-06 0
0.111393 0 0.05 -0.0521151 -2.09182e-06 0
0.112615 0 0.05 -0.0518666 -2.05571e-06 0
0.113849 0 0.05 -0.0516197 -2.02031e-06 0
0.115096 0 0.05 -0.0513747 -1.9855e-06 0
0.116357 0 0.05 -0.0511313 -1.95137e-06 0
0.11763 0 0.05 -0.0508896 -1.91781e-06 0
0.118917 0 0.05 -0.0506496 -1.88492e-06 0
0.120217 0 0.05 -0.0504112 -1.85259e-06 0
0.121531 0 0.05 -0.0501745 -1.82075e-06 0
0.122858 0 0.05 -0.0499394 -1.78916e-06 0
0.124199 0 0.05 -0.049706 -1.75803e-06 0
0.125555 0 0.05 -0.0494743 -1.72746e-06 0
0.126924 0 0.05 -0.0492443 -1.69749e-06 0
0.128308 0 0.05 -0.0490158 -1.66808e-06 0
0.129706 0 0.05 -0.048789 -1.63921e-06 0
0.131118 0 0.05 -0.0485638 -1.61085e-06 0
0.132546 0 0.05 -0.0483402 -1.58298e-06 0
0.133988 0 0.05 -0.0481181 -1.55561e-06 0
0.135446 0 0.05 -0.0478976 -1.52877e-06 0
0.136918 0 0.05 -0.0476787 -1.50241e-06 0
0.138406 0 0.05 -0.0474613 -1.47625e-06 0
0.139909 0 0.05 -0.0472454 -1.45028e-06 0
0.141428 0 0.05 -0.0470312 -1.42483e-06 0
0.142963 0 0.05 -0.0468185 -1.39987e-06 0
0.144514 0 0.05 -0.0466074 -1.37537e-06 0
0.146081 0 0.05 -0.0463978 -1.35135e-06 0
0.147665 0 0.05 -0.0461897 -1.32774e-06 0
0.149265 0 0.05 -0.0459831 -1.30456e-06 0
0.150882 0 0.05 -0.045778 -1.28178e-06 0
0.152515 0 0.05 -0.0455744 -1.25942e-06 0
0.154166 0 0.05 -0.0453722 -1.23749e-06 0
0.155833 0 0.05 -0.0451715 -1.21584e-06 0
0.157519 0 0.05 -0.0449723 -1.19433e-06 0
0.159221 0 0.05 -0.0447746 -1.17309e-06 0
0.160942 0 0.05 -0.0445783 -1.15228e-06 0
0.16268 0 0.05 -0.0443835 -1.13186e-06 0
0.164437 0 0.05 -0.0441902 -1.11182e-06 0
0.166212 0 0.05 -0.0439983 -1.09217e-06 0
0.168005 0 0.05 -0.0438079 -1.07287e-06 0
0.169817 0 0.05 -0.0436188 -1.05391e-06 0
0.171648 0 0.05 -0.0434312 -1.0353e-06 0
0.173498 0 0.05 -0.0432449 -1.01703e-06 0
0.175368 0 0.05 -0.0430601 -9.99152e-07 0
0.177257 0 0.05 -0.0428765 -9.81353e-07 0
0.179165 0 0.05 -0.0426944 -9.63715e-07 0
0.181094 0 0.05 -0.0425138 -9.46349e-07 0
0.183042 0 0.05 -0.0423345 -9.29318e-07 0
0.185011 0 0.05 -0.0421566 -9.12588e-07 0
0.187001 0 0.05 -0.0419801 -8.96214e-07 0
0.189011 0 0.05 -0.0418049 -8.80128e-07 0
0.191042 0 0.05 -0.0416311 -8.64342e-07 0
0.193094 0 0.05 -0.0414587 -8.488e-07 0
0.195168 0 0.05 -0.0412875 -8.33592e-07 0
0.197264 0 0.05 -0.0411177 -8.18612e-07 0
0.199381 0 0.05 -0.0409492 -8.03996e-07 0
0.20152 0 0.05 -0.040782 -7.89375e-07 0
0.203682 0 0.05 -0.0406161 -7.74901e-07 0
0.205866 0 0.05 -0.0404516 -7.6063e-07 0
0.208073 0 0.05 -0.0402884 -7.46667e-07 0
0.210303 0 0.05 -0.0401266 -7.32882e-07 0
0.212556 0 0.05 -0.039966 -7.19481e-07 0
0.214833 0 0.05 -0.0398069 -7.06239e-07 0
0.217133 0 0.05 -0.0396489 -6.93311e-07 0
0.219458 0 0.05 -0.0394923 -6.80506e-07 0
0.221806 0 0.05 -0.0393369 -6.68026e-07 0
0.22418 0 0.05 -0.0391828 -6.55673e-07 0
0.226578 0 0.05 -0.03903 -6.43637e-07 0
0.229001 0 0.05 -0.0388784 -6.31616e-07 0
0.231449 0 0.05 -0.0387281 -6.19702e-07 0
0.233923 0 0.05 -0.0385792 -6.07915e-07 0
0.236422 0 0.05 -0.0384315 -5.96409e-07 0
0.238948 0 0.05 -0.0382852 -5.85008e-07 0
0.2415 0 0.05 -0.0381401 -5.73906e-07 0
0.244078 0 0.05 -0.0379964 -5.62931e-07 0
0.246684 0 0.05 -0.0378537 -5.52201e-07 0
0.249316 0 0.05 -0.0377126 -5.41632e-07 0
0.251977 0 0.05 -0.0375725 -5.31222e-07 0
0.254664 0 0.05 -0.0374339 -5.21022e-07 0
0.25738 0 0.05 -0.0372963 -5.11006e-07 0
0.260124 0 0.05 -0.0371602 -5.01113e-07 0
0.262897 0 0.05 -0.0370251 -4.91185e-07 0
0.265699 0 0.05 -0.0368915 -4.81474e-07 0
0.26853 0 0.05 -0.036759 -4.71778e-07 0
0.27139 0 0.05 -0.0366281 -4.62352e-07 0
0.274281 0 0.05 -0.0364981 -4.53024e-07 0
0.277201 0 0.05 -0.0363698 -4.43987e-07 0
0.280152 0 0.05 -0.0362424 -4.35003e-07 0
0.283134 0 0.05 -0.0361166 -4.26258e-07 0
0.286147 0 0.05 -0.0359917 -4.17472e-07 0
0.289191 0 0.05 -0.0358686 -4.08904e-07 0
0.292267 0 0.05 -0.0357462 -4.00285e-07 0
0.295375 0 0.05 -0.0356257 -3.91919e-07 0
0.298515 0 0.05 -0.035506 -3.83424e-07 0
0.301688 0 0.05 -0.0353882 -3.75058e-07 0
0.304895 0 0.05 -0.0352712 -3.66676e-07 0
0.308134 0 0.05 -0.0351563 -3.58416e-07 0
0.311408 0 0.05 -0.0350422 -3.50128e-07 0
0.314715 0 0.05 -0.0349302 -3.42218e-07 0
0.318058 0 0.05 -0.0348189 -3.34379e-07 0
0.321435 0 0.05 -0.0347097 -3.2664e-07 0
0.324847 0 0.05 -0.0346014 -3.18871e-07 0
0.328295 0 0.05 -0.0344951 -3.11032e-07 0
0.331778 0 0.05 -0.0343899 -3.03201e-07 0
0.335298 0 0.05 -0.0342867 -2.95361e-07 0
0.338855 0 0.05 -0.0341848 -2.87417e-07 0
0.342449 0 0.05 -0.034085 -2.79777e-07 0
0.346081 0 0.05 -0.0339865 -2.72163e-07 0
0.34975 0 0.05 -0.0338901 -2.64293e-07 0
0.353457 0 0.05 -0.0337952 -2.5628e-07 0
0.357204 0 0.05 -0.0337026 -2.47955e-07 0
0.360989 0 0.05 -0.033612 -2.39471e-07 0
0.364813 0 0.05 -0.0335237 -2.31196e-07 0
0.368678 0 0.05 -0.0334376 -2.22799e-07 0
0.372583 0 0.05 -0.0333538 -2.14067e-07 0
0.376529 0 0.05 -0.0332727 -2.04749e-07 0
0.380515 0 0.05 -0.0331944 -1.95151e-07 0
0.384544 0 0.05 -0.0331192 -1.8561e-07 0
0.388614 0 0.05 -0.0330469 -1.75328e-07 0
0.392727 0 0.05 -0.0329783 -1.64243e-07 0
0.396883 0 0.05 -0.0329136 -1.52572e-07 0
0.401082 0 0.05 -0.0328532 -1.40639e-07 0
0.405325 0 0.05 -0.0327971 -1.27032e-07 0
0.409612 0 0.05 -0.0327469 -1.12811e-07 0
0.413944 0 0.05 -0.0327017 -9.70877e-08 0
0.418321 0 0.05 -0.032664 -7.97786e-08 0
0.422743 0 0.05 -0.0326328 -6.03926e-08 0
0.427212 0 0.05 -0.0326114 -3.98951e-08 0
0.431727 0 0.05 -0.0325976 -1.62066e-08 0
0.43629 0 0.05 -0.0325972 1.15933e-08 0
0.4409 0 0.05 -0.0326084 4.16046e-08 0
0.445558 0 0.05 -0.0326351 7.55634e-08 0
0.450265 0 0.05 -0.0326782 1.14964e-07 0
0.45502 0 0.05 -0.0327423 1.61352e-07 0
0.459826 0 0.05 -0.0328302 2.14728e-07 0
0.464681 0 0.05 -0.0329466 2.77747e-07 0
0.469587 0 0.05 -0.0330973 3.5295e-07 0
0.474545 0 0.05 -0.0332897 4.42614e-07 0
0.479554 0 0.05 -0.0335321 5.50152e-07 0
0.484615 0 0.05 -0.0338358 6.81367e-07 0
0.489729 0 0.05 -0.0342158 8.42776e-07 0
0.494896 0 0.05 -0.0346907 1.04262e-06 0
0.500118 0 0.05 -0.0352849 1.29259e-06 0
0.505393 0 0.05 -0.0360308 1.60895e-06 0
0.510724 0 0.05 -0.0369717 2.00443e-06 0
0.51611 0 0.05 -0.0381552 2.47154e-06 0
0.521553 0 0.05 -0.0396182 2.9734e-06 0
0.527052 0 0.05 -0.0413696 3.45446e-06 0
0.532609 0 0.05 -0.043387 3.86778e-06 0
0.538223 0 0.05 -0.0456282 4.18553e-06 0
0.543896 0 0.05 -0.0480377 4.38438e-06 0
0.549629 0 0.05 -0.0505444 4.44076e-06 0
0.555421 0 0.05 -0.0530638 4.38889e-06 0
0.561273 0 0.05 -0.0555599 4.28145e-06 0
0.567187 0 0.05 -0.0580046 4.13087e-06 0
0.573162 0 0.05 -0.0603728 3.93838e-06 0
0.579199 0 0.05 -0.0626373 3.69851e-06 0
0.5853 0 0.05 -0.0647636 3.41796e-06 0
0.591464 0 0.05 -0.0667354 3.11152e-06 0
0.597692 0 0.05 -0.0685271 2.7602e-06 0
0.603985 0 0.05 -0.0701043 2.39401e-06 0
0.610344 0 0.05 -0.0714818 2.06045e-06 0
0.61677 0 0.05 -0.0726732 1.74365e-06 0
0.623262 0 0.05 -0.0736764 1.44253e-06 0
0.629822 0 0.05 -0.0745076 1.18058e-06 0
0.63645 0 0.05 -0.0751939 9.56188e-07 0
0.643148 0 0.05 -0.0757494 7.58761e-07 0
0.649915 0 0.05 -0.0761895 5.94754e-07 0
0.656753 0 0.05 -0.0765382 4.59112e-07 0
0.663662 0 0.05 -0.0768047 3.3828e-07 0
0.670643 0 0.05 -0.0769954 2.38646e-07 0
0.677698 0 0.05 -0.077131 1.59243e-07 0
0.684825 0 0.05 -0.0772151 8.77912e-08 0
0.692027 0 0.05 -0.0772523 2.51481e-08 0
0.699304 0 0.05 -0.0772495 -2.45903e-08 0
0.706657 0 0.05 -0.0772158 -6.55592e-08 0
0.714087 0 0.05 -0.0771533 -1.01581e-07 0
0.721594 0 0.05 -0.0770664 -1.31667e-07 0
0.72918 0 0.05 -0.0769575 -1.58356e-07 0
0.736844 0 0.05 -0.076829 -1.80249e-07 0
0.744589 0 0.05 -0.0766846 -1.98463e-07 0
0.752414 0 0.05 -0.0765255 -2.14421e-07 0
0.760321 0 0.05 -0.0763533 -2.27925e-07 0
0.76831 0 0.05 -0.0761697 -2.39356e-07 0
0.776383 0 0.05 -0.0759758 -2.49087e-07 0
0.78454 0 0.05 -0.0757728 -2.57157e-07 0
0.792782 0 0.05 -0.0755618 -2.64032e-07 0
0.80111 0 0.05 -0.0753434 -2.69665e-07 0
0.809525 0 0.05 -0.0751187 -2.74478e-07 0
0.818027 0 0.05 -0.0748876 -2.78664e-07 0
0.826618 0 0.05 -0.0746513 -2.81755e-07 0
0.835299 0 0.05 -0.07441 -2.84619e-07 0
0.84407 0 0.05 -0.0741638 -2.87326e-07 0
0.852933 0 0.05 -0.0739126 -2.89833e-07 0
0.861888 0 0.05 -0.0736571 -2.91374e-07 0
0.870937 0 0.05 -0.0733977 -2.93869e-07 0
0.88008 0 0.05 -0.0731322 -2.97093e-07 0
0.889318 0 0.05 -0.0728616 -2.99272e-07 0
0.898653 0 0.05 -0.0725865 -3.00853e-07 0
0.908085 0 0.05 -0.0723075 -3.0068e-07 0
0.917615 0 0.05 -0.0720271 -2.98363e-07 0
0.927245 0 0.05 -0.0717467 -2.94161e-07 0
0.936975 0 0.05 -0.0714686 -2.88307e-07 0
0.946807 0 0.05 -0.0711937 -2.81436e-07 0
0.956741 0 0.05 -0.0709231 -2.74073e-07 0
0.966779 0 0.05 -0.070657 -2.66537e-07 0
0.976921 0 0.05 -0.0703958 -2.58914e-07 0
0.98717 0 0.05 -0.0701394 -2.5121e-07 0
0.997525 0 0.05 -0.0698883 -2.43685e-07 0
1.00799 0 0.05 -0.069642 -2.36506e-07 0
1.01856 0 0.05 -0.0694005 -2.29622e-07 0
1.02924 0 0.05 -0.0691635 -2.22947e-07 0
1.04004 0 0.05 -0.0689311 -2.16514e-07 0
1.05094 0 0.05 -0.0687028 -2.10301e-07 0
1.06196 0 0.05 -0.068479 -2.04277e-07 0
1.0731 0 0.05 -0.068259 -1.98448e-07 0
1.08435 0 0.05 -0.0680434 -1.92769e-07 0
1.09572 0 0.05 -0.0678315 -1.87378e-07 0
1.10721 0 0.05 -0.0676235 -1.82091e-07 0
1.11881 0 0.05 -0.0674191 -1.769e-07 0
1.13054 0 0.05 -0.0672187 -1.72061e-07 0
1.14239 0 0.05 -0.0670213 -1.67531e-07 0
1.15437 0 0.05 -0.0668273 -1.63172e-07 0
1.16646 0 0.05 -0.0666361 -1.5901e-07 0
1.17869 0 0.05 -0.0664481 -1.54968e-07 0
1.19104 0 0.05 -0.0662626 -1.51046e-07 0
1.20352 0 0.05 -0.0660802 -1.47264e-07 0
1.21613 0 0.05 -0.0659002 -1.43602e-07 0
1.22888 0 0.05 -0.0657232 -1.40017e-07 0
1.24175 0 0.05 -0.0655484 -1.36537e-07 0
1.25476 0 0.05 -0.0653766 -1.33202e-07 0
1.26791 0 0.05 -0.0652068 -1.29932e-07 0
1.28119 0 0.05 -0.0650399 -1.26691e-07 0
1.29461 0 0.05 -0.0648749 -1.23684e-07 0
1.30818 0 0.05 -0.0647126 -1.20846e-07 0
1.32188 0 0.05 -0.0645518 -1.18114e-07 0
1.33572 0 0.05 -0.0643935 -1.15468e-07 0
1.34971 0 0.05 -0.0642366 -1.12875e-07 0
1.36385 0 0.05 -0.0640821 -1.10362e-07 0
1.37813 0 0.05 -0.0639289 -1.07907e-07 0
1.39257 0 0.05 -0.0637782 -1.05525e-07 0
1.40715 0 0.05 -0.0636286 -1.03179e-07 0
1.42188 0 0.05 -0.0634816 -1.00889e-07 0
1.43677 0 0.05 -0.0633355 -9.86501e-08 0
1.45182 0 0.05 -0.063192 -9.64618e-08 0
1.46702 0 0.05 -0.0630494 -9.43471e-08 0
1.48238 0 0.05 -0.0629092 -9.2289e-08 0
1.4979 0 0.05 -0.0627699 -9.02575e-08 0
1.51358 0 0.05 -0.0626331 -8.8296e-08 0
1.52942 0 0.05 -0.0624968 -8.64544e-08 0
1.54543 0 0.05 -0.062363 -8.4675e-08 0
1.56161 0 0.05 -0.0622295 -8.29738e-08 0
1.57796 0 0.05 -0.0620984 -8.12769e-08 0
1.59447 0 0.05 -0.0619675 -7.96406e-08 0
1.61116 0 0.05 -0.061839 -7.80198e-08 0
1.62803 0 0.05 -0.0617107 -7.64297e-08 0
1.64506 0 0.05 -0.0615849 -7.48505e-08 0
1.66228 0 0.05 -0.0614592 -7.33009e-08 0
1.67968 0 0.05 -0.0613361 -7.17762e-08 0
1.69725 0 0.05 -0.061213 -7.03141e-08 0
1.71501 0 0.05 -0.0610924 -6.8889e-08 0
1.73296 0 0.05 -0.0609717 -6.74978e-08 0
1.75109 0 0.05 -0.0608536 -6.6108e-08 0
1.76942 0 0.05 -0.0607353 -6.4745e-08 0
1.78793 0 0.05 -0.0606197 -6.33091e-08 0
1.80663 0 0.05 -0.0605042 -6.19176e-08 0
1.82554 0 0.05 -0.0603913 -6.06968e-08 0
1.84463 0 0.05 -0.060278 -5.9567e-08 0
1.86393 0 0.05 -0.060167 -5.843e-08 0
1.88343 0 0.05 -0.0600556 -5.73111e-08 0
1.90313 0 0.05 -0.0599467 -5.62377e-08 0
1.92304 0 0.05 -0.0598372 -5.51247e-08 0
1.94316 0 0.05 -0.0597303 -5.40124e-08 0
1.96348 0 0.05 -0.059623 -5.29814e-08 0
1.98402 0 0.05 -0.059518 -5.19734e-08 0
2.00477 0 0.05 -0.0594125 -5.09696e-08 0
2.02574 0 0.05 -0.0593094 -4.9958e-08 0
2.04692 0 0.05 -0.059206 -4.90031e-08 0
2.06833 0 0.05 -0.0591047 -4.80036e-08 0
2.08996 0 0.05 -0.0590033 -4.70287e-08 0
2.11182 0 0.05 -0.0589041 -4.61145e-08 0
2.1339 0 0.05 -0.0588047 -4.52254e-08 0
2.15622 0 0.05 -0.0587071 -4.43419e-08 0
2.17876 0 0.05 -0.0586096 -4.34948e-08 0
2.20155 0 0.05 -0.0585137 -4.2628e-08 0
2.22457 0 0.05 -0.0584181 -4.1792e-08 0
2.24783 0 0.05 -0.058324 -4.09128e-08 0
2.27133 0 0.05 -0.0582304 -4.01701e-08 0
2.29508 0 0.05 -0.0581378 -3.94458e-08 0
2.31907 0 0.05 -0.0580458 -3.87357e-08 0
2.34332 0 0.05 -0.0579544 -3.8012e-08 0
2.36781 0 0.05 -0.0578641 -3.73083e-08 0
2.39257 0 0.05 -0.0577741 -3.65974e-08 0
2.41758 0 0.05 -0.0576856 -3.58652e-08 0
2.44285 0 0.05 -0.0575971 -3.51521e-08 0
2.46839 0 0.05 -0.0575105 -3.44893e-08 0
2.49419 0 0.05 -0.0574233 -3.38569e-08 0
2.52026 0 0.05 -0.0573384 -3.32156e-08 0
2.54661 0 0.05 -0.0572524 -3.25766e-08 0
2.57323 0 0.05 -0.0571693 -3.20302e-08 0
2.60012 0 0.05 -0.057084 -3.12251e-08 0
2.6273 0 0.05 -0.057004 -3.09366e-08 0
2.65476 0 0.05 -0.0569179 -2.98692e-08 0
2.68251 0 0.05 -0.0568428 -3.0178e-08 0
2.71054 0 0.05 -0.0567519 -2.84781e-08 0
2.73887 0 0.05 -0.0566867 -2.9727e-08 0
2.76749 0 0.05 -0.0565836 -2.65698e-08 0
2.79642 0 0.05 -0.0565405 -2.97808e-08 0
2.82564 0 0.05 -0.0564076 -2.0191e-08 0
2.85517 0 0.05 -0.0564338 -3.14156e-08 0
2.885 0 0.05 -0.0562061 -3.97102e-08 0
