/*--------------------------------*- C++ -*----------------------------------*\
| =========                 |                                                 |
| \\      /  F ield         | OpenFOAM: The Open Source CFD Toolbox           |
|  \\    /   O peration     | Version:  v1912                                 |
|   \\  /    A nd           | Website:  www.openfoam.com                      |
|    \\/     M anipulation  |                                                 |
\*---------------------------------------------------------------------------*/
FoamFile
{
    version     2.0;
    format      ascii;
    class       volScalarField;
    location    "2000";
    object      Ma;
}
// * * * * * * * * * * * * * * * * * * * * * * * * * * * * * * * * * * * * * //

dimensions      [0 0 0 0 0 0 0];


internalField   nonuniform List<scalar> 
5975
(
1.251906244220933
1.262382899764257
1.264761630017967
1.251628726996747
1.261331445981664
1.23553107830562
1.241507944620396
1.245461997350539
1.218387086651374
1.227668865324688
1.239337656734934
1.244668434956641
1.207478231867765
1.211616766004862
1.22102065898644
1.241255578780208
1.243451879795665
1.190445487698369
1.201485380388739
1.209235148774044
1.225104445140992
1.23108603764269
1.231861898067495
1.173664597606316
1.187324739460286
1.198400051203834
1.217551636363033
1.226725675933052
1.14703708043623
1.171042612558255
1.185356439609685
1.204061121286371
1.216992955265742
1.227212018616643
1.220301871362248
1.136906988973866
1.142283993313467
1.173454896106113
1.179244365425913
1.195941075987886
1.209244467918664
1.218402399787027
1.215830719208134
1.124735916552946
1.133099801431458
1.16492478973186
1.182561511189816
1.19904391438172
1.210074880609389
1.212695291534142
1.111842954757012
1.122120596641387
1.134210861382783
1.166331497567907
1.18669186712283
1.195925563512018
1.204419612172336
1.204692387495879
1.106012505179163
1.106845348604224
1.120932634520038
1.14485919173838
1.158079337919637
1.180832231535771
1.198853423047932
1.203995971705565
1.19841672913161
1.102460937748195
1.102399779770223
1.111992745145384
1.104598432261812
1.133253799188585
1.144478270582335
1.164641664256934
1.182283576117189
1.192299290155076
1.195773653890763
1.193119251198991
1.106984004807694
1.098698255684607
1.101368312037848
1.112416482559413
1.106914949113104
1.130419684432456
1.157820833433051
1.173434188593885
1.184729651601366
1.185417572392848
1.118878796188902
1.102339371022415
1.099233115594337
1.097216626020309
1.102047840828248
1.119114687636101
1.107276188154368
1.140837624042067
1.16272165785887
1.174337846663606
1.18434338792879
1.178178544461139
1.177449620501774
1.12472469939648
1.117629272510374
1.096177680564852
1.103763775903456
1.095909830956089
1.100155992128332
1.120664716374546
1.112927159064519
1.136947254542519
1.153272344487136
1.17414267144239
1.168569836152638
1.170022576324265
1.1472593395276
1.125707510547421
1.115652714605418
1.091387444116389
1.095011134034964
1.094804264038819
1.103623091431423
1.113401853066037
1.134399446940141
1.160067722137056
1.168098688505238
1.160319460106032
1.156382742387859
1.150009768533767
1.12661084680697
1.098552341636509
1.092035564671493
1.089187465686238
1.09103808320329
1.101275355864097
1.122981147895833
1.144705473070704
1.153373542027257
1.159934168110235
1.156767650424943
1.160361693284327
1.161136011986309
1.157448159333228
1.140245484349399
1.15257945056655
1.11298543834683
1.097769947671071
1.08969291153908
1.087070790009475
1.090664214752102
1.092737505171297
1.112301734526076
1.122709393074842
1.137499723691827
1.153716029366121
1.160874258777694
1.155441313171378
1.159295055932768
1.158889128642936
1.157668942064279
1.134222415297419
1.140463823232384
1.121297611383847
1.104676020782063
1.091257014794914
1.087071586041928
1.088342490730443
1.092199250220722
1.112236713235255
1.139616275767967
1.145909289333908
1.148450333212608
1.146646881979014
1.160342612311841
1.156142165787723
1.15889214612958
1.155780832129598
1.148497216608389
1.140860431444298
1.11433792111398
1.101402556753288
1.090217175806006
1.087133728817465
1.088543744695786
1.100310076715288
1.125896457880828
1.137495448360078
1.146080488146934
1.143098277307692
1.166105242745322
1.161466857052591
1.154186715516752
1.153617820723966
1.151895019971661
1.14630905406211
1.129500081897593
1.117899959745639
1.105902845425048
1.095468138901505
1.08634848527043
1.088563921621476
1.0995863302305
1.125048841323272
1.139036884157067
1.139208040709166
1.1404933673941
1.177675912148797
1.175672645980564
1.165684303702531
1.150738535465738
1.147244281720626
1.138337671419876
1.127782386079813
1.108548601669226
1.101638894870701
1.0929806372899
1.091509495273205
1.107753164656815
1.119712876943037
1.133664475799548
1.140431290328247
1.136360259506217
1.137223449244428
1.175579928490981
1.18278093815338
1.182355679641649
1.16460528118944
1.145193780765293
1.154183582702037
1.136124525447766
1.11783444908234
1.10920150470481
1.105911852911637
1.096082056241436
1.09574525683238
1.107182231114101
1.126897303534238
1.139903194690748
1.137285472430284
1.138710157115488
1.173827710916681
1.174837963655589
1.184407629890879
1.183895487373378
1.183222542952826
1.176727238960422
1.14382123445221
1.152282677521114
1.125988894319799
1.117097362625135
1.105100109238212
1.10570171427046
1.096226764044814
1.10034878072938
1.115758269499855
1.12514636542198
1.143228095883633
1.136873135799434
1.132782902459812
1.143907173317087
1.171311721274206
1.170496534413066
1.17500445672261
1.179595327853326
1.187533197232475
1.187393315719518
1.188095826273633
1.176431358380679
1.133647066652242
1.155079348587893
1.124743554988474
1.107849841698764
1.103763929835799
1.103191313275788
1.105917300156947
1.106242571022989
1.115545231078737
1.147901205224988
1.144954855276429
1.133698255944334
1.146754952625707
1.171442480183695
1.168634799050225
1.171598963023494
1.169544320898248
1.180179667388891
1.187549828957361
1.188222043383907
1.170829499766474
1.185035700176102
1.130118864702983
1.145144088288581
1.110533246144019
1.106603503060186
1.106178894967467
1.102845968115706
1.102359542874725
1.10729024099665
1.121769450846558
1.148868295844927
1.148104141737572
1.153457055731032
1.140994696443753
1.179183741514487
1.171237386892819
1.166153882501975
1.171355832161351
1.167471006709514
1.180781927548618
1.189022166648314
1.183282772541812
1.17598988618868
1.184085646845862
1.115784490024203
1.147736348979039
1.107083320185661
1.100346971087206
1.108197069518976
1.103613740368673
1.117523394421209
1.148946997268934
1.151102864407182
1.156490104787507
1.153175340329421
1.137052770685232
1.218604815672616
1.190161975848578
1.173871569508806
1.166959315268525
1.162706916006652
1.174200036698759
1.165404039910396
1.177856606785
1.188667479825216
1.183279860259712
1.168888575961651
1.186742368971635
1.112131419297432
1.131562660107033
1.095852221011674
1.09596023467596
1.11356744261594
1.099035234851199
1.12317808892581
1.145370326362678
1.15201390284235
1.156999514567881
1.154219138681955
1.136812866774092
1.25227630200461
1.192512500924161
1.167922047472708
1.164450692063497
1.160926434786157
1.169686144394766
1.176656490172535
1.179216195597478
1.174740454766719
1.181643457836941
1.097017920523332
1.139174355840423
1.092727418014135
1.093679835340073
1.113753570987526
1.100843361536173
1.140493456727288
1.149994724728257
1.1588177779637
1.151840761662675
1.122701153459492
1.266306624177871
1.183390195680976
1.16605391731213
1.158366349913234
1.161578210294059
1.168599419043077
1.170187715291588
1.176696005645935
1.164661695289908
1.178769517433786
1.095296670166307
1.123672398553882
1.087901140960405
1.087675473117244
1.095057279972251
1.145107599080187
1.128982006158811
1.152526705113469
1.160407447082446
1.149622986732659
1.118994746422637
1.261736529631211
1.266920895073186
1.206552474922498
1.157106808522566
1.154517477843691
1.15584313100929
1.16416579043791
1.168438429839462
1.168216656225526
1.166790666255657
1.173517784623703
1.108472950882866
1.086801770556287
1.1351737406019
1.086137498414778
1.102845213699923
1.137769339735165
1.125903477966884
1.144137016959774
1.146453180931567
1.140687944807066
1.269090451315707
1.269006575002628
1.185101389083123
1.165710067048595
1.160735113386319
1.164976719671531
1.167462258093269
1.165517001739371
1.165121323469012
1.107972204213178
1.084384610981606
1.136167579504336
1.083508609505941
1.097246668419862
1.113644214528356
1.144322350768628
1.144502619044047
1.14620957885026
1.131563270645703
1.270182343476779
1.269427853624071
1.190689104263034
1.16453637367243
1.162886420924518
1.1646021839526
1.165793404528164
1.159315846694589
1.096705885767881
1.124101056849814
1.082049514266524
1.087177443376887
1.138933170149505
1.087401065060952
1.112097971830592
1.141238724701269
1.147588151693164
1.147059434996626
1.147739772161431
1.12687244360268
1.272693184299537
1.268561761399556
1.251686059769717
1.218624600376891
1.171974077049882
1.169047737064256
1.164090015373584
1.164222859884438
1.156980664944416
1.099308034824669
1.124076633001178
1.085329535549982
1.13717780458234
1.090232324940937
1.100460561429984
1.146405598603615
1.159916191928408
1.148837683483817
1.152378413635443
1.135579122203103
1.274487634500403
1.269646722709531
1.249771895578437
1.203560896308414
1.173603401451023
1.166496583291893
1.165478088684704
1.164354614222104
1.153202654972921
1.122030070856842
1.08561227707454
1.130013617336417
1.135085992566723
1.116403234212307
1.158601962888179
1.168300037911597
1.158850063545462
1.165628146195528
1.156560142382595
1.136510271529291
1.261160542016096
1.281415700708724
1.282633449244495
1.231937183027982
1.238758699003175
1.180152984789002
1.167628076405798
1.165035419184637
1.156422629964824
1.122179311075328
1.12578874129087
1.127422945264421
1.120365425988073
1.169681395949227
1.190717898634889
1.193499416329882
1.192002133677771
1.151931316853708
1.256904562369029
1.282200378906619
1.282919872047843
1.215095672269676
1.231697051558759
1.23953018805229
1.179266599758121
1.16393167760181
1.162783376559315
1.153328545357901
1.131910169781419
1.122841774105701
1.127523523469861
1.127921274863558
1.140479253384977
1.182715150574212
1.161914198836687
1.191577324294448
1.185456831793643
1.192953428551889
1.191087261452136
1.266308010188708
1.242911372639715
1.286640354404853
1.283647641124018
1.22418663673339
1.230019832688492
1.168192936938568
1.166318068081128
1.163310593483706
1.143902033889074
1.136556348319743
1.118984601704724
1.123407211687977
1.118538595492719
1.166659503911686
1.158057837713646
1.185139088110505
1.176785426994305
1.185330955200453
1.180813377623268
1.26059494009855
1.239533410949252
1.279431189342108
1.291904074335941
1.261210818038007
1.213031501797758
1.225354224585832
1.168081982456869
1.16451494379692
1.163423896928235
1.146989891719818
1.141760156270165
1.115945146639343
1.12808820712507
1.12008342084129
1.157794315355978
1.178368559559011
1.165106748698526
1.178427554272885
1.171367037292398
1.245150530145026
1.268505684851937
1.227974442035395
1.280848388186634
1.287994724490193
1.255019371219694
1.170651425163093
1.215130500881198
1.163080921910144
1.131784804984551
1.114214635961568
1.121815817740154
1.11454153752691
1.146011313292728
1.169837277791091
1.154036141531001
1.170295530584676
1.171748011690426
1.168404678663552
1.239690345621827
1.26105066652461
1.222550143374284
1.28801597142683
1.274279053044111
1.220153713434361
1.156404421909799
1.210051432929929
1.137060774208864
1.114072381795844
1.128131092993546
1.114572917045853
1.166205375977305
1.15377773384902
1.166311815134133
1.167450187248215
1.166503920864108
1.227468046513774
1.246952147859832
1.266678331876624
1.213699618829696
1.267763558495165
1.269032018721282
1.158950837644048
1.228107003714174
1.139787816165897
1.200313078810874
1.131454522013386
1.113881769174785
1.123604245509382
1.112602338424753
1.115959486901549
1.160340571960355
1.14654244626998
1.163301695104005
1.166555960306593
1.165887302695352
1.222394570746975
1.240701833016265
1.257153437545126
1.207870808725474
1.267804244214022
1.263463628671759
1.256297422609268
1.131895107988977
1.20187999561939
1.127301769838166
1.198206780717847
1.12738639458261
1.111497396954074
1.116335362809562
1.159374989627548
1.147247991573201
1.163313736077353
1.16609834474818
1.166885048912275
1.165709763927353
1.211552641523016
1.228760829438487
1.24621619973622
1.248761251859859
1.24748706819498
1.249967735719862
1.125300266173421
1.139234421756754
1.191978768640546
1.118447225547146
1.109632335633757
1.109913271540806
1.15506860503551
1.137410009848075
1.159861967983751
1.166359130475912
1.166569339500688
1.164020130659825
1.205728837358753
1.223208984526727
1.238568392432579
1.226596412800112
1.23658667192986
1.239977808452317
1.23455075956283
1.108316947969889
1.122351511813408
1.181832554611507
1.196068164764744
1.12109001541184
1.110535997321931
1.138663156223394
1.155334232993996
1.159690885664166
1.165190363351659
1.165747702861369
1.165111695774292
1.212221846393529
1.227640102741116
1.206395640016755
1.220732897587108
1.22253899620001
1.223710834833548
1.103014322835747
1.104793854570496
1.152548129920246
1.180322355431574
1.190754648180747
1.108820966175508
1.129432258679448
1.151826718537241
1.157085562286506
1.163543402616203
1.163310852680628
1.164476844094007
1.207958122146215
1.221561847223477
1.213251147983752
1.223247895413064
1.211920956131497
1.21829061913405
1.214915708922402
1.11324984032644
1.140706377618006
1.171433102946407
1.192431052206001
1.116622675329909
1.137301030455456
1.151327446993921
1.160639240713691
1.163677148733727
1.163585516177076
1.16091911192064
1.163244002142189
1.199076439494988
1.213166525045834
1.219446264075966
1.212032467682362
1.22590750912744
1.194557447276404
1.211801771120582
1.198174749406779
1.117972477995193
1.154458966555514
1.162681687225598
1.175171853077664
1.186355172925655
1.128765001276044
1.152752516734554
1.158665430017891
1.163720733690279
1.164886117824447
1.161569040299669
1.165400177638885
1.197325281092707
1.205208556942091
1.206257562124917
1.193189717024399
1.23675826276804
1.226699050935058
1.198173378722572
1.186344629289155
1.180019214553611
1.196598965264626
1.137313842938053
1.155936675333732
1.16874072440672
1.190043660480837
1.162020986388077
1.163344279221618
1.181365864370458
1.161561151458945
1.178228947535345
1.199141685336801
1.204528470623393
1.20447961805405
1.246381640589841
1.230813318021454
1.196195129407782
1.184078803309442
1.165729680455722
1.185468940150143
1.147725779770688
1.159567512411998
1.174898397497164
1.187803202467335
1.193175717525867
1.189289564567114
1.202684619656084
1.195969666966832
1.211587472770036
1.192707956049491
1.19532234194664
1.252615334391727
1.213452860297779
1.254353368515269
1.178460903046767
1.157459010939881
1.165868418841233
1.17057608746756
1.142144887213705
1.153823707032854
1.169456085314657
1.211706856587768
1.256673497133564
1.238450362494979
1.264085202464893
1.191092431676698
1.190126422446021
1.218618054282988
1.261362096107141
1.188064078098112
1.141732153586785
1.163939353049544
1.164450146761111
1.145115987068109
1.135355848833356
1.159006317839884
1.173811922338585
1.256479731372658
1.271347102419005
1.269402754627236
1.265151683071006
1.233315420052773
1.194734046220355
1.170577418414475
1.207680747633401
1.244924538832203
1.277152467532275
1.182258800636602
1.131287030457168
1.153940390144141
1.151361580966436
1.139237230297783
1.133457940861581
1.154719038794034
1.169152424427964
1.283128031187171
1.286992540035814
1.28415189058804
1.17911550131094
1.165146552721467
1.227463511202117
1.249000641648466
1.281865628734871
1.195748964307089
1.126252849149918
1.159875487313021
1.147027139810327
1.140902235564055
1.129556830879369
1.148568761213383
1.159232071862349
1.169172767423619
1.28444766530133
1.288035264134388
1.285148054838879
1.22434137883595
1.266630932563214
1.188601540192351
1.121771867062177
1.153750852957788
1.139684972250391
1.13423550852089
1.134065296045347
1.132022784307612
1.147881775489748
1.155971097391425
1.161230750491544
1.283379151688102
1.287490673473748
1.291944541646957
1.243513859314385
1.265367528247936
1.213186644762034
1.137120493846917
1.110962865940884
1.175107427669301
1.112090983494606
1.156633558250899
1.14035346834173
1.140393892891367
1.135971873554282
1.151213174993742
1.157014580703479
1.270554783938559
1.288797780374441
1.292841642940445
1.230833909764617
1.21155128266496
1.164473962716608
1.13591311877509
1.10917838603851
1.200126280627663
1.109213861384095
1.145368889104745
1.141710398586285
1.152661027644472
1.141433524736323
1.151988153862201
1.153671914667124
1.253690792328377
1.271006493988372
1.291918291474437
1.278434536347622
1.239590982411365
1.229052243534326
1.189215798129262
1.163783165552017
1.10802706116856
1.203938356247807
1.100054586301511
1.148269229896492
1.145077136276743
1.156931274191675
1.157092613240023
1.147431199703588
1.148575990012381
1.153931032711749
1.257028726877642
1.269276229567458
1.269837174502701
1.265600434584562
1.230645964286192
1.182145691699392
1.156938228693802
1.088438653359258
1.136397575329468
1.216138035037455
1.117983373023693
1.081791689142307
1.139913112785808
1.145516777205145
1.163582715534706
1.153859041865154
1.165597328062028
1.14735124480283
1.148772029249994
1.151367518741445
1.242689648950662
1.255380030327468
1.266737229584737
1.25567796618216
1.187526304188077
1.17466066952855
1.087119521003387
1.137664092884907
1.217440967129647
1.103399808348951
1.078824114303007
1.146049981944987
1.145167856713388
1.161038034199993
1.156658380924444
1.166576706689893
1.149918539824415
1.147993429204374
1.24343727451463
1.251716539873823
1.247986350338542
1.196733076655298
1.164072732968969
1.0873691583542
1.122485554697793
1.225967245118429
1.205991918851899
1.074530362556734
1.117805050566057
1.137492813179481
1.144276431788215
1.16054262319429
1.164243516957689
1.167893724157582
1.167393831230868
1.149946869053672
1.142464183960002
1.235631121414099
1.247049651673947
1.245419721794617
1.238326628667771
1.19374449715277
1.173483682721473
1.079009735069956
1.129078145484451
1.218587288118419
1.209638175453845
1.071930054180774
1.105452258952172
1.146105842690234
1.142332373468153
1.163861506750391
1.145313414261894
1.163171013691743
1.169904154669136
1.169656974240584
1.156301251493761
1.136140416149771
1.233587391005444
1.231714482493313
1.225273802464921
1.202743778940655
1.184769502625407
1.162120819340048
1.078805283998538
1.150038148592739
1.106142404873478
1.069952991542864
1.10379366451748
1.146312344644162
1.141771306297478
1.155481024151642
1.142600986843121
1.168182275270012
1.169224663685234
1.153178877757727
1.125044383183714
1.224671414808618
1.231492234695349
1.224617637865794
1.203112210018109
1.184600908187423
1.168165723958438
1.069809784237168
1.142176943688168
1.106631981116446
1.062527593736694
1.079976287679533
1.139123903029464
1.15601860945521
1.132497574214655
1.168185357995673
1.1595608870836
1.170985017653294
1.152231932386655
1.123074037768364
1.21571799337882
1.218335711273304
1.210826668460121
1.208011643359333
1.192001630567479
1.177239320174257
1.160939668202875
1.074955375854961
1.123669162189412
1.149574239537115
1.058392998748599
1.079751897860842
1.141707552282294
1.137898551757176
1.142213729988841
1.159357605355103
1.1707174636962
1.153660562065657
1.167804435862588
1.105801003711976
1.211633445194318
1.202655182397826
1.199900469740414
1.191404474745252
1.176441570486609
1.166074033117685
1.155185160853017
1.067086088522807
1.112323902358889
1.142596263239845
1.047541556754905
1.058509319970673
1.138381691115044
1.136823586265226
1.162349347540475
1.155085379705008
1.167774217335646
1.139781505641522
1.159826250520418
1.167998058793853
1.110716423177145
1.202181470269105
1.192576683761962
1.199757395803701
1.182770677635669
1.163462455631242
1.154703173487094
1.077397476886667
1.124781241035665
1.144453221826873
1.136505158238222
1.041536923545452
1.0609826426998
1.141831413135118
1.135692406875872
1.151285152329086
1.189032180896727
1.161067147427648
1.167455741686659
1.13639637057382
1.155088567987056
1.161306752339569
1.082639846180937
1.191705246133598
1.182066654482444
1.187255403244114
1.181277209401746
1.16799575794645
1.147780270801879
1.063180896808841
1.1141472254151
1.14264635565924
1.126935682490854
1.036785661241549
1.038904845513238
1.135627447654057
1.134477042548344
1.199183837144368
1.193457860474125
1.155537574040897
1.163587874005165
1.138553737730496
1.143998255043446
1.159808631592749
1.091016500813486
1.174683664688634
1.183720427575695
1.185374433284566
1.164730984104264
1.147886842349519
1.079944650383742
1.109074197846625
1.132078763844064
1.127615573047717
1.037275806077669
1.141293283693607
1.134354316770209
1.199933610439997
1.175846099271731
1.157054371769474
1.163201052686168
1.134227291504356
1.14263355534519
1.149558717994452
1.159283224310407
1.058629334283146
1.170823784123429
1.171438853465077
1.17380468956812
1.173840532165519
1.15452266628609
1.148045782973202
1.059431352872195
1.106609533104749
1.131618180599893
1.122140321083981
1.040673568460464
1.131186645600197
1.185923320689274
1.210838719815868
1.174317519520174
1.149629210112523
1.150031901568813
1.134972871798418
1.133205825185716
1.14722377346031
1.152064736984448
1.077822879453879
1.165665244015144
1.167594560705598
1.169569171091562
1.154920913630074
1.138569041586427
1.077556556114238
1.120099737716342
1.127906534817162
1.124917881380038
1.042780537036857
1.133981746676399
1.191797484389722
1.213077356120586
1.187016412203941
1.167567455297935
1.149516969581977
1.144546197741771
1.132391794496245
1.139248365827665
1.147534265998257
1.051288553075432
1.162584769888704
1.165990622149255
1.16353783395154
1.14726473972731
1.141126043551348
1.077639064210501
1.121249774873642
1.131550465786549
1.127222966584134
1.051144727862802
1.118312585087588
1.183357416810601
1.214973428610536
1.177542482842652
1.166363017886205
1.170444025065211
1.135852452918973
1.14927068037323
1.141759279334006
1.132727930461289
1.133816191179249
1.135508133383473
1.062112042932802
1.163029682129983
1.159790617552657
1.148624558806231
1.136735089609499
1.114534495149297
1.129779360500407
1.133257172763834
1.129742421405736
1.062377450240542
1.109247869224626
1.221092531575438
1.187387409562931
1.165996432296086
1.168836353696147
1.130899482207305
1.141722818442796
1.147682942138692
1.127406688549092
1.128862066778401
1.133238826771313
1.039864146305291
1.157692050987866
1.155980318913009
1.158629680782227
1.142668797601384
1.139998739809698
1.120543166051306
1.134746694546766
1.136669777169769
1.133971052816032
1.108473259986577
1.066340642001834
1.040173559177476
1.221985681201151
1.182429190013069
1.166971993935502
1.164884513307531
1.172715465510594
1.116386546026024
1.133408111548308
1.216241184350498
1.130266569189459
1.124278461583163
1.124926967170877
1.125177095646219
1.145819840098772
1.148410565140952
1.142485324628083
1.139821198860776
1.141671465135482
1.13210299016953
1.137833908948885
1.138556938784076
1.137081050306814
1.127871009083288
1.103726622646211
1.031066427488318
1.223343977366882
1.192860024430339
1.166426678566453
1.163981493822063
1.170075448991677
1.108742216133342
1.033689256938747
1.125100088765416
1.215746914777064
1.129265608473689
1.117359001693712
1.115374527498314
1.126021993599273
1.118112246101782
1.149579033575742
1.148118069362049
1.14152702680995
1.142109021780489
1.14594056431579
1.139699639875787
1.139476879485685
1.140577432442531
1.141853819424962
1.139808242856956
1.151680306112869
1.105730505184635
1.07189757137229
1.226146908602536
1.176725162524333
1.1683484654243
1.162226698548961
1.172051477567904
1.090242767152177
1.017278202645972
1.183404991344239
1.244488348570054
1.115921285426082
1.110689166917621
1.118352847646702
1.111185342859291
1.144157391278231
1.166061635086261
1.140244027347808
1.142408610211704
1.142743444463946
1.148439384967617
1.148899714357371
1.147932507199233
1.154495782087223
1.155438908392129
1.089114663203378
1.180534413487576
1.172645332385872
1.168570989191874
1.163877312990655
1.160164614473436
1.17190559911556
1.105656328035466
0.9854320336624899
1.002044468537449
1.191132977900066
1.249262116697776
1.11191795108883
1.106393068414935
1.110064663715838
1.110605895020875
1.25889240447616
1.14089211731849
1.141894271948136
1.144904924488332
1.147317243536277
1.154414381878468
1.149154590307607
1.151550703189224
1.162302092423132
1.131697584866834
1.182495871766454
1.173486555210323
1.167166782765062
1.171235632574346
1.164286018092613
1.160701460696864
1.173224713088113
1.086508625330598
0.9815326593438941
1.037095045736287
1.147398727242684
1.263949254382273
1.195794761150619
1.113382934263866
1.103189510818915
1.103123754128452
1.102410934243786
1.251018143621249
1.146942942483114
1.140852836563295
1.147717989836752
1.15363186974289
1.159472692830742
1.156869730940055
1.158072105195503
1.160265465330004
1.161910318234864
1.09836597926815
1.159367335291476
1.174238627422562
1.173343754745458
1.169427809281776
1.173228222961543
1.167609330721993
1.160268545775935
1.175045706667012
1.096317479205974
0.9770730597045515
1.033376324672646
1.178270944223561
1.264549404408569
1.1966706725299
1.106212545706592
1.100174349815948
1.095178278111331
1.373163315300809
1.209576148901025
1.158716803457386
1.15628820778424
1.154946194878437
1.154035932860114
1.159669418815863
1.156355002161987
1.155809746064883
1.159373448383565
1.14228901034694
1.152376386678593
1.174874700138958
1.173905854009963
1.171937762357698
1.173820495189801
1.175061840732654
1.167567771364174
1.159328152012553
1.165095904208675
1.175603654638909
1.079654872837005
0.9617838380772961
1.035431276973972
1.273640051822112
1.11573443815872
1.214622006630771
1.179278936246056
1.096691647526806
1.084345297527439
1.364919303297296
1.366541286666199
1.215330041446476
1.157405641907179
1.157532785478971
1.169811242753232
1.163219551759725
1.157153116912764
1.15399527594765
1.154098907129922
1.140764164221428
1.174106175965671
1.172289213708468
1.175721563979325
1.176166364783815
1.169240038400536
1.166618794925181
1.166284468363739
1.176137263374301
0.9605320567481196
1.074819666163986
0.9938454944695357
1.110043215290051
1.27580264273754
1.116451691756841
1.209285208325811
1.181993708113235
1.087230638584875
1.089694750715781
1.083597153615075
1.380828116912054
1.365824703249728
1.351183831963929
1.162516428948916
1.164990991576825
1.29757212847807
1.165720644206066
1.156083821327447
1.158690387490052
1.155497665267777
1.174670608708961
1.173615720449868
1.175641466234659
1.176610892964156
1.167878306200233
1.174626515462187
1.166916382427452
1.176913055363788
1.175194805265463
0.9445517066882253
1.056039283347858
0.9899171565205372
1.113590440324528
1.264412939349373
1.219194723671561
1.157701871649919
1.174580452682049
1.079774609684189
1.080250330366008
1.073722504381137
1.385575599200523
1.35359729643272
1.343595759599407
1.163597526098854
1.172645017503292
1.40039765300739
1.1660917943048
1.150886568873446
1.15591059656785
1.147853145782991
1.174830041359893
1.171084618508816
1.17617204001277
1.176414800770897
1.167243629413188
1.193314440091579
1.19138166933382
1.163989266393769
1.176804459448244
1.174597190361616
0.9362025593807531
1.058405914522681
1.029217955023199
1.099511153291141
1.290270276014475
1.208570039855719
1.138109829328346
1.173633203556705
1.072521084056091
1.077395511005157
1.398425900212035
1.314272826102832
1.375789914747735
1.401243771202906
1.165179730836423
1.324562458757642
1.392762695347486
1.404770612082197
1.167340815231795
1.147443716806822
1.149986436451987
1.149766547773557
1.174338125014612
1.172965829235769
1.169694354324057
1.175325979342035
1.176527703198881
1.164682089509657
1.23418224580494
1.174910917120036
1.176248613084075
1.176213214022125
1.171214479458278
0.9107552999116739
1.043741791633662
0.9965418933198553
1.119375513391611
1.230355405655323
1.284368371618296
1.179029969689987
1.2277479136305
1.081434397811281
1.071898994800454
1.07108255184414
1.304988628506923
1.368036327229815
1.170870144888303
1.35648813810675
1.442531454268124
1.409050163057051
1.167351832290634
1.14656412834443
1.143303206168298
1.13809848309209
1.174485921116502
1.173249599755026
1.175443523489833
1.173116665152243
1.174762202603351
1.175041527119399
1.169378179709762
1.285811705694834
1.188945048905214
1.17316392663689
1.174261012563296
1.168755415916021
0.9096462957394761
1.051844622368505
1.035555370186258
1.104244602353697
1.204625979923925
1.288893256839777
1.177710087279252
1.179206324827953
1.076942271910573
1.070844732951611
1.279884584723581
1.325911616501828
1.380544410560465
1.252394485984461
1.466837385150333
1.449484732035905
1.419714238545642
1.163077633237826
1.212537554751393
1.133853028553558
1.143152557199607
1.174252626535998
1.174053754185544
1.176859423828767
1.175103598262723
1.174343307376374
1.173621237885727
1.173007805123638
1.173311245651686
1.169821170696697
1.286465890572713
1.242978931065454
1.170905853100027
1.17225140630492
1.16362964813602
0.8900270916439039
1.047061746827053
0.9809461153782526
1.096387387610139
1.112819789290401
1.224364741655819
1.289576905922045
1.283920792149347
1.090077965217728
1.068426853218432
1.280658319041592
1.318161905552768
1.341147859398934
1.299700626792791
1.464817713109902
1.406110713285126
1.369312227193006
1.163557959183691
1.362669447219285
1.130331767779134
1.131344541852689
1.118970647635702
1.174152618060372
1.177003448564823
1.177674084530399
1.1763249553242
1.175944867206663
1.171277278605971
1.17068889744107
1.174545678156553
1.179339816663456
1.310303232085412
1.239819502499499
1.164831785945915
1.169227174449969
1.160955837633974
0.8782523140637214
0.9890174522319133
1.032927090003831
1.105119476304639
1.120752346045256
1.221795172668985
1.289924191610303
1.245312515795749
1.084982662922818
1.068394348476816