/*--------------------------------*- C++ -*----------------------------------*\
| =========                 |                                                 |
| \\      /  F ield         | OpenFOAM: The Open Source CFD Toolbox           |
|  \\    /   O peration     | Version:  v1912                                 |
|   \\  /    A nd           | Website:  www.openfoam.com                      |
|    \\/     M anipulation  |                                                 |
\*---------------------------------------------------------------------------*/
FoamFile
{
    version     2.0;
    format      ascii;
    class       volScalarField;
    location    "2000";
    object      p;
}
// * * * * * * * * * * * * * * * * * * * * * * * * * * * * * * * * * * * * * //

dimensions      [1 -1 -2 0 0 0 0];


internalField   nonuniform List<scalar> 
5975
(
37250.87281826916
36950.76883597322
36694.59923674684
37489.85909124799
36997.24075935371
38120.12748023798
37996.11777774049
37698.65540895731
38797.46378412344
38510.63276151719
38131.30215724227
37807.32164233716
39376.26842206688
39154.31342302061
38848.97960085303
38085.7066054477
37799.77689080864
39860.87798212084
39647.29658503171
39280.44276177679
38832.02459073369
38523.69426991152
38409.58447975395
40273.53440429526
40096.10559874709
39803.19492848664
39121.57936823605
38715.63753710855
40649.69237765906
40485.04276707875
40191.89338665382
39768.22217428459
39217.02651512977
38646.76112263356
39060.12793099718
41204.65837714027
41041.86888204233
40389.09550107332
40385.18278268769
40051.82807787441
39545.29148405381
39109.10246779992
39257.10434367199
41591.76317242435
41428.40929701112
40743.67424340286
40358.54404792887
40008.39920583813
39543.75570455199
39422.24324010465
42016.61813661392
41787.06470150947
41378.15622925158
40898.10807842279
40316.30797806859
40110.46589871813
39821.82686589212
39837.48824020506
42360.06369300477
42303.93734367011
41881.77372018857
41354.98672305221
41215.85295917145
40582.38565017592
40110.86580898716
39900.87305041001
40188.2903924954
42648.10364950928
42526.1375221007
42134.48705679121
42408.38251466434
41789.7714243731
41460.46768833385
41246.99254312842
40690.93882128867
40416.29785135425
40339.7932765829
40494.12603777433
42879.23357957912
42819.3244785495
42586.56439498703
42276.55243115804
42374.09739028537
42027.15448166785
41383.22293965604
41070.67444196335
40886.60924313573
40873.05576223399
42978.75625159167
43041.7802136813
42714.23196432454
42899.80827098346
42559.67466260435
42212.14592884247
42429.79466735635
41997.37228587157
41384.65641894632
41139.52139746305
41035.29839911062
41233.12220851664
41166.1334622407
42827.2113274533
43024.57771162118
43012.5097650692
43055.77713686282
42861.46468945445
42713.33989419948
42278.84037900252
42396.59107187799
42166.18181558335
41797.32059336635
41466.16777107034
41749.07425571961
41531.70215251856
42529.68038883161
42759.15075751843
43047.41220862493
43116.38356111335
43128.43263337364
42883.53526877935
42723.55524526775
42518.07206017797
42331.85558369991
41878.2475736515
41816.73693697964
42181.16410655801
42324.5028377905
42295.08299903312
42672.48623055231
43148.40907484018
43174.19358796818
43146.28985335691
43099.97371597676
42979.45989991073
42526.07543749225
42423.26819060969
42222.98395618398
42193.98201189841
42378.23457991652
42174.76571506031
42355.6867479976
42225.59647084491
42422.59463037341
42199.92165822161
42616.65806067345
43089.00044787111
43238.57216174094
43264.23916402254
43178.03450176361
43172.11704900006
42949.09284442988
42719.16627026751
42682.14675721287
42541.85734791603
42273.36653680583
42511.20918284958
42534.37415333359
42457.23089129607
42221.32792673302
42264.98229112233
42193.9970956406
42345.26894263068
42788.53204391146
43216.00777855786
43260.9986802334
43259.9704192675
43285.72728667505
43129.04751030781
42680.71774497405
42778.90697593353
42830.8425567851
42948.85589714877
42486.54462831276
42698.24730421904
42336.55817748752
42593.75128228868
42202.58243268279
42142.06412880911
42331.58492872312
42722.81469371772
43175.05692133039
43268.92468294212
43279.82158986896
43258.40393574778
43053.07296244863
43126.40932830983
43008.34057701196
43155.77170968572
41987.66917205128
42449.70434564226
42773.69305873644
42390.7241926725
42566.57254405916
42303.17716634436
42171.63876381634
42234.14814204509
42509.76848179472
42928.29722174774
43203.20500576662
43270.12888458597
43340.66029005439
43223.33942774638
43199.84285422099
43357.17772416091
43277.23363685483
41389.80190769822
41569.7631558563
42177.29135237775
42829.91416892607
42691.51706064121
42382.59867761402
42291.25398020667
42240.57398074363
42515.69565855942
42949.87334210143
43231.86784478278
43285.24768459763
43327.73475148076
43323.9700001547
43332.05095762187
43490.38441021601
43335.68897289714
41307.89033731377
41115.8068213911
41264.9342870437
42209.76966293414
42831.10737175667
42613.98391915821
42572.18219032303
42340.93757362615
42273.8515001165
42319.17579068284
42741.03442005689
43017.91845369458
43136.49898471073
43340.5829919662
43332.29941963986
43435.68597321748
43079.69952284649
41507.7149937646
41355.08240522555
41068.9112188826
41123.19349566379
41264.81601199396
41570.27764814853
42829.44094237303
42586.60022464638
42597.79208114633
42493.62709582759
42325.5929142358
42332.45777219703
42737.53750023249
42983.47645510172
43026.88750085808
43114.94167868911
43125.94555220442
43428.88491551304
42955.37379581528
42945.02305150831
41729.97652029728
41668.66424071162
41383.84611976106
41276.21078296914
40992.48618479779
41014.56194468336
41004.58310888552
41530.48481403929
42782.88979374557
42319.30765900538
42708.53712661679
42451.62368444027
42268.85016602457
42471.26477183667
42332.43448999122
42665.53426078799
42667.19448869356
42867.70559640785
42988.35168508763
42589.68228621285
42594.55692484209
41736.0866287836
41861.59324666511
41548.89787817294
41726.53022130311
41336.41025682515
41012.47370283359
41004.26038524541
41763.29284581333
41131.76983739503
42793.62280272203
42474.26284047073
42675.20596531202
42546.11006929579
42240.72005249534
42362.92981685769
42499.37304363328
42283.14835923765
42476.38798998069
42634.16968125539
42906.70345993538
42542.74357610178
42437.08716398857
40958.59296363854
41745.62019195191
41953.61533864145
41572.35235648228
41708.11990297733
41344.47699033703
40946.26334506398
41213.12695322291
41399.30913961239
41145.1333054366
42869.62694975174
42187.46230298706
42840.90234063915
42519.16993877685
42233.12173924724
42380.40870298686
42313.07116182621
42591.84273535518
42708.04724880877
42372.48021516411
42603.56483760597
42350.25002335945
38897.19240556968
40502.63464690854
41538.69033073403
41951.37198462117
42008.93809062812
41614.30631224601
41871.32038298546
41506.9668916486
41022.40483331617
41244.94885169666
41606.23593294792
41009.98290107973
42951.49335027418
42377.46403417204
42872.11643942063
42769.3971003585
42287.22077568106
42646.88453984173
42245.03106064744
42610.20759929738
42659.79545677707
42367.22576517376
42538.69756245016
42463.11275021434
37321.04460703547
40216.02884510153
41865.3509231474
42027.14509379918
42126.74371619319
41829.84330185579
41649.01636422074
41478.96979579399
41236.66946555045
41164.89937283102
42999.60244410627
41943.40328324837
43058.02065568451
42843.65483454079
42495.17555289424
42724.81009929679
42810.74038647569
42753.36376838105
42266.8625679053
42680.91970815843
42582.78808194053
36723.26534897091
40949.82240364715
41913.78922201026
42183.49611375758
42290.63793967247
41990.67131229706
41951.53836229767
41558.92071985737
41411.92628375909
41330.62044480919
43050.83311773012
42041.61152157446
43167.52419680046
43185.60047711863
43134.12293440272
42874.18312708164
42938.46480799186
42626.19400435637
42324.91802023716
42773.66174290143
42906.76503116909
36962.36790645277
36660.66278076039
39751.00206375515
42221.34357994246
42427.59684972501
42547.13871466708
42205.51187049911
42090.14288037132
41952.32606609602
41188.97023394712
41487.62934634784
42436.26257927458
43252.10868767225
41641.53421405044
43273.99009754526
43170.19107429083
43076.47315057262
43143.39859729569
43074.93073043082
42954.67891834323
43049.31097312383
36602.7408761082
36608.01302980562
40810.96075572535
41863.19888162398
42428.25257676729
42238.4171891428
42084.48841292127
41943.79211652347
41406.32111726626
42224.801024564
43265.42603097855
41393.57344568071
43442.0112860941
43474.0052542945
43409.72774066342
43012.14655326931
43013.54325167136
43000.85982194705
43434.32966862341
36574.55967656957
36637.08484635621
40607.8520361066
42170.25193454416
42352.50216287222
42170.22706025041
41907.32344145909
41459.45524779495
42663.62543148178
41522.62445206309
43362.4512547567
43138.14196421971
41351.33364870156
43480.11976702326
43500.83128067713
43033.59277295358
42780.34057328355
42889.70199879124
42845.97917556658
43291.22171607315
36444.26697078609
36665.7436833705
37416.81931183518
39261.16957924391
41747.76559632293
42054.97414521968
42267.05567992231
42041.63636176662
41795.07788910383
42460.18937606977
41262.17565390169
43246.34789089961
41254.31806113535
43307.22724772046
43080.88068952235
42490.6930407652
42114.7090650287
42749.66190453703
42532.03237082766
42623.27880647755
36395.24550065114
36828.61941408901
37568.00602992526
40213.3984358137
41802.0654555079
42124.94933242299
42152.36184233041
41966.30187357394
41732.71252650328
41348.39820341214
43099.15941397203
41135.78145756867
41605.33148048734
42272.02885282083
41850.41379923835
41672.33664253327
42237.76771313711
41860.84946699377
42257.91878172198
42163.58337899592
37012.29770389008
36192.06942153617
36168.02693217462
38810.75797100228
38108.3103942686
41282.70068312628
42003.86741360641
42067.21289893333
41863.0571094203
41253.93572563506
41139.39101286485
41641.19571965346
41460.50809877751
41040.62449295632
40507.71065564428
40442.17476039018
40537.3542566316
41169.87708149085
37243.11428522321
36226.46211513742
36172.91465572529
39529.02587822742
38483.4118520538
38074.27512573268
41219.42532170009
42004.77681561497
42030.52311571771
41910.41125259415
40871.02270259659
41433.9546874841
40997.42611495739
41808.48296928579
40928.06005659718
40485.9221026135
40938.07418055973
40519.87756692365
40491.00562168687
40536.63673380878
40545.17100474382
36866.49063558732
37906.75908126337
36084.32503733459
36212.69405223218
38738.66469061869
38538.16302192232
41686.44457203185
41836.87045686234
41986.53065179239
41857.15981412835
40789.83342717044
41429.42906937165
41216.47073792312
41736.88855016809
40638.14697633609
40733.04760392187
40804.29685963083
40928.49090788729
40868.07684958872
41142.36622675538
37229.47323945248
38116.54224573407
36391.87595743463
35747.9820201569
37213.31765647794
39445.6277961868
38806.19101984076
41632.1124584155
41850.10527091395
41892.60361574298
41808.43690454929
40725.47553073702
41635.07975709649
41103.37315443075
41778.61602201578
41013.89274973994
41034.59846376751
41061.9308171572
41236.55364863871
41629.07676043251
37902.53136487913
36970.50414523033
38653.21217592675
36201.6928502502
35850.01745548097
37286.09657585299
41325.16567530739
39310.36903199371
41863.24501575395
41805.28780487954
41582.60110484249
41476.96828268751
41709.64907991288
41320.12899801327
41392.25003727881
41425.77680919247
41608.49973634722
41592.52393967703
41812.61103376404
38234.10178416785
37321.04580060254
38956.40848718626
35770.54650984307
36505.34900838773
38223.16279352854
41321.82221163687
39589.91464610816
41808.0964385335
41630.16633428138
41444.20182596727
41730.44278742125
41653.1731958287
41521.81989327165
41845.01512210901
41831.79226314476
41903.42307662259
38782.6230550503
37994.68122688473
37066.27142569936
39391.2250534332
36028.33521801194
36405.21491331304
40867.19953056017
37395.36664542725
41589.29172101612
40088.97648249334
41732.97432418595
41600.82420327193
41579.29037282192
41712.01841448215
41719.64586211635
41809.49425708262
41650.71500082453
41910.86698395082
41885.54068968984
41934.01314427723
39090.07958193955
38331.48150192048
37392.16197541813
39696.90364160273
35754.94093123978
36057.14814988308
36987.54229647158
41373.64108331429
38127.20119661751
41549.48746081184
40194.6790750889
41642.18669242728
41782.00648315946
41670.75166758714
41910.52076205902
41781.5823508064
41941.15802266666
41915.32132867913
41854.02996420897
41938.15688803767
39570.34889072367
38905.97911451912
38036.16921669333
36017.26539890799
36091.40923281269
37094.01140998787
41371.06096328398
40455.31579856559
40520.30853677777
41762.78280187202
41851.71699703077
41768.3201046834
41973.1911888692
41876.68863686837
42004.90280290775
41903.58181579769
41884.27927873711
41998.68122828408
39916.14498554226
39217.29238221243
38320.42331139521
36147.05223923374
35948.90804091531
36573.78166732891
37909.71614667711
41891.44599583543
40712.3799666651
41042.65139007149
40336.8846232121
41861.63192108255
41907.67783370137
41960.36480023225
42006.71929601555
42044.62032452828
41965.28776988603
41933.89796705843
41944.30696843621
39746.06144156898
38958.72429783231
36710.59716124042
36007.8192018189
36715.05812508248
38066.73784306767
41886.45514884496
41840.0685618167
39369.16318200676
41134.06593309909
40653.57486569374
42021.7498253431
42037.20815273176
42041.85982277259
42054.42823222257
42044.32946871594
42050.66362327524
41951.22974562881
40000.96529517642
39256.80453461786
36338.42972828663
35934.45248105864
37491.31260914116
36243.48142615959
38610.73570237999
41867.47054287658
40479.59377128552
41609.15977712797
40635.22945712736
42003.18258108932
41990.12449255779
42117.09239152861
41921.48061459602
42043.5238467818
42016.92460052708
42161.68554768965
41985.33331044842
40434.57295169016
39783.26970422411
39121.52824266919
36621.59971420918
35844.88497197105
37504.93541548149
36337.33878058125
38768.49879729176
41664.32392073041
40041.65216715109
42062.22914062497
41484.01313957912
40953.42971331238
41898.56994610929
41749.26805094809
41810.47057237104
42040.78077539357
41853.65202327894
42170.09004092515
41680.55401297384
40607.93452403878
40133.35410663879
39547.99974282058
38187.41972472762
35845.63973319075
35986.55762351695
37034.65491492389
37987.03112343336
38547.84688536522
39374.38020751047
41699.31315644617
42411.76880313438
41871.07886376372
40890.12144970685
41297.19457623525
41881.20279369401
40891.28807197695
41764.78776620941
40834.78768398639
40539.42701304446
40010.08050665166
38133.55382707086
36040.70267829814
36029.6118456503
37109.79374538421
37766.86645050819
38901.33333158149
39806.23510175665
42854.17982759047
42296.05602573713
41677.75903468599
41077.96331609227
39617.47067637023
40614.14752779306
39739.15542004647
40167.69950733936
39074.94375892229
40853.45604006028
40205.17706061708
36010.10529160007
36760.79345256697
35789.66947383121
38022.18869970875
39532.38817337253
38594.97567993747
39873.32800152991
43161.28440835827
42664.38173785844
42026.25895090611
39419.32183204572
37089.4936767427
38150.0517849618
36336.0430093066
41065.0151885588
40511.58083405239
36873.22855653743
35798.92474095657
37840.92433904574
39690.52443032843
38693.22859373829
40315.49177473416
43075.85102969447
43536.49754707811
42541.75741900003
41813.74369943624
37254.88642755256
36367.86257638522
36466.21453725851
36816.69819047237
38092.92622029963
40894.19800908639
40526.95808839922
37387.74359306301
36505.22101586388
35865.89567354452
38284.74394216583
40344.08935233488
39253.10640147846
40474.41800076934
43417.40153984781
43637.9444848987
42828.77602852294
42132.82561245067
35784.25082293971
35770.41540287073
35846.64905701146
41217.70070596027
40934.82931128232
37242.29446407076
36649.74619696432
35920.73352007658
38166.34910790159
40146.78669686277
39214.57133509434
41008.91017535976
43419.99123655701
43843.12156697996
43155.45887724774
42629.74569943063
41859.17054503541
35747.89379475427
35764.07992111577
35696.37675600038
37545.83041738983
36439.33120921769
38696.39956556814
40566.49817262997
39684.85859164532
41355.27367419032
43767.27194928789
43543.35027701168
43822.19927803145
43268.1829065785
42813.25555811882
42120.60869512997
35751.85569715179
35757.68096237291
35429.18762192687
37395.43454447714
36692.43220547844
38529.94684971663
40350.91386466202
40825.19573766505
39477.63776564923
41234.77180433448
41821.29602758672
43600.9810672623
43256.25098923574
43587.82052810141
43087.96442077936
42563.14261334405
36475.69915787963
35748.05197341365
35393.82855301728
38007.60850931228
38684.45597914037
39834.18505728642
40650.69137561366
40881.30720458627
39123.4692059725
41799.03602807338
41945.33500994692
43569.42120173988
42610.70072563772
43474.74266224345
43008.6526091693
42567.29293280035
37224.1983779779
36546.94725460039
35457.01485492563
36230.02667868203
37823.33660942585
38258.97655054205
39757.45084473573
40462.6112578195
41175.76365422393
39300.14619775414
41940.5648907977
42322.22881900703
43414.72261616316
42287.16351427379
42503.6625235005
43172.05373407475
43219.16376819785
42742.15577291476
37165.07009728646
36683.04521614575
36458.58387275344
36763.17291033705
38355.46848682952
40102.31157244956
40681.29033844711
41527.42676998948
41090.65314862419
38984.61559478367
42235.79824604258
41741.81484103476
42387.50453792318
43372.83626103467
42036.59705577274
42777.90937997211
42046.1453102133
43272.94641275752
43171.23208784741
42716.39309206231
37839.9248665281
37332.47711493704
36661.01804506472
37351.33295113321
40138.86131280714
40562.92103402201
41893.67856222897
41309.43157324652
39026.41997762006
42392.76365057721
42034.6263661488
42554.95669595398
43371.78007653626
42084.81680349405
42707.3709173965
42019.89331879621
43114.86830062803
42987.39278761243
37839.50560512384
37398.60851946232
37760.76221554822
39969.95309654014
41018.31800087207
41879.02928629951
41828.74439815767
38684.56783167487
39576.84157130013
42330.68915375534
42597.03669668995
42672.65975120317
43402.43844251141
42226.53598523668
42318.89390507732
41945.11917730444
42104.6602677429
43147.11551053169
43000.49205226723
38248.55272212716
37838.78583767736
37677.53338914016
38202.89379225931
40195.70247157769
41064.72991620963
42301.51143662183
41985.92021674335
39058.63154709671
39489.69908195276
42394.85780805401
42700.59995995081
43316.23599502503
43390.61339274565
42165.92351642923
42920.24911831732
42441.252432081
42008.96549542942
42039.64259156919
42805.6376791107
43259.19797584858
38454.16847106818
38410.14117429255
38815.83412379428
39852.89063366067
40629.16792142477
41568.30398304126
42422.4040320681
41961.69167477248
42362.94779898753
42595.96976616505
43095.26903933996
43243.40582378127
43343.26175303396
42582.6554374731
43063.73362470343
42151.37161196796
42123.12693370232
42902.6270638936
43273.11328012754
38896.76692060714
38640.98029430826
38752.19230460585
39924.92211387599
40736.42780108202
41530.6065774198
42614.11829060155
42331.42839343699
42611.48672702339
42715.81827385627
43258.51920262002
43385.46274195571
42750.26049398755
43581.41475544882
42217.36227680987
42519.83424978685
42102.31802992509
42883.59124302564
43388.96288176779
39344.29565560956
39224.58667560989
39487.78987127478
39760.32534466888
40405.02337518295
41128.79131090051
41926.19825610196
42716.19079329065
42667.303644613
42425.66817944452
43108.0996723287
43550.25323292402
43125.44981506337
43513.40484686066
42813.85786323305
42498.88740945407
42035.38247619133
42916.67886589203
42261.86357334014
43481.27377130866
39616.09172177168
39954.50485239658
40147.86293065072
40527.97299926752
41250.76481910027
41737.4322910743
42215.93710311983
43132.39786723146
43093.38637812478
42749.47590445715
43232.81240952823
43617.87141199612
43140.21992049837
43673.54453766075
42001.57140248638
42526.5358874766
42082.67563099185
43587.44070093401
42663.83126118955
42216.58898290814
43279.58227892551
40124.77795841179
40669.44635702694
39922.30575890126
40968.7565948091
41956.74732002885
42327.84365864227
43263.90371510788
43196.04833031147
42756.38517517477
43064.0595551993
43597.18867474899
43652.36696043619
42837.3844449115
43613.67654531248
42279.50515709777
40679.24332439985
42186.06813433835
42055.84279451562
43812.46120091516
42927.07184483868
42509.41005758364
43366.73106239924
40652.56498220981
41170.43967931646
40591.48223161005
41117.54887313942
41803.86904736119
42694.4426339663
43609.12138922402
43538.91450868694
42899.10562847053
43444.93096365709
43593.2770489231
43561.89727197985
42842.6611208306
43853.55704492785
40185.02155181252
40449.74803527116
42220.56202914636
42076.78496633061
43792.88805493418
43514.32231959603
42608.82194153088
43086.86266759423
41621.01245841763
41000.92858041904
40625.57471023604
42039.60365330521
42777.95269832031
43569.29963334565
43647.84830626276
43422.14602922263
43593.44096199628
43657.55910014472
42403.09214920038
43447.74195930912
40184.97921153395
41360.61767330641
42093.1120891035
42055.547167432
44021.80614093018
43592.62833233673
43114.30806746891
42363.42310417284
43094.52561221725
41900.89482076094
41682.56565138915
41446.23037848171
41289.23903704014
42498.50800129741
42812.52515704596
43723.6399210524
43799.26862605489
43508.56640379503
43811.83991237733
43426.63673237109
42418.21152889654
41187.16607012057
39615.47337710339
41399.28752064489
42111.18524551685
42066.53921909787
43914.87623202469
44101.79051946687
43168.23096981931
42625.5214377619
42628.69166434126
42116.56102681594
41911.31084994992
41576.22889716509
42574.54203456603
43283.27074834902
43816.05593626113
43847.35003409004
43691.70783987053
43748.72717712318
43240.84423010047
42152.56955181642
40699.42391894038
39683.24217953906
40837.55065906479
41796.59436209009
42065.25384764838
43260.9150877659
44140.80621476528
43554.56008799572
42557.1103077533
42445.99666008252
42315.55674274106
41982.41796213612
41891.27696239654
42963.59970313254
43255.13458381631
43550.22258288509
43591.34671235176
43569.57376072499
43599.36256685776
42890.13372624797
42193.83867144916
41292.28793345373
39704.52716695858
41384.9402599331
41837.64304303778
41713.13540101671
42023.78746074502
42186.29214178096
43535.96323209499
44085.15956318679
43455.42707475943
43130.55047001633
42141.26040192861
42277.20467084636
42135.3472568116
42928.58947419331
43466.91109532785
43394.53131781502
43500.13433837199
43456.26107632949
43433.17206199621
42541.88586801809
42251.67048557123
39422.89028955247
40950.90764267222
41861.26964637535
41826.72275106844
41857.75499588165
42188.31950890589
43011.36903410633
44268.98509904632
43710.9173774749
43031.94020628062
41839.82502291297
42554.27067230384
42137.10599424766
42569.49846969241
43245.98977577171
43402.2162942895
42853.58536426465
43154.81994070009
43351.62241334982
43186.55072540901
42588.55240901006
42039.84396249774
42097.14492541607
39402.55684090372
41324.47630896784
41866.50307202042
41916.37956480793
41739.72043010443
41985.75564628143
42562.8287609249
39672.94210592526
44298.08917635112
44156.97868403175
43688.78934795766
43290.96064208256
42670.81941393484
43026.17971057571
43232.53803225701
43394.80311328884
42936.18914582571
43071.10945758352
43406.51083042825
43165.98434833289
43044.64327062802
42114.8529085088
41899.1943797213
42431.99188362043
39319.76309710802
40897.19452260579
41930.13555513474
41979.45998830053
41916.88239064348
42291.26584595196
41947.33252210456
42594.32502860084
39653.18254969138
43867.53713750405
44396.66787819775
44223.2931595936
43490.97734450303
43062.80313827915
43061.76034855313
42055.98504034966
43323.00574592186
43373.67181576465
42620.20820051024
42772.47457995384
43297.74476819679
43104.34441804795
42986.13479987861
42702.08416825369
42193.49283976119
41821.12951338333
42092.34681540505
39385.30347057772
41745.31221918876
41942.4359207722
42079.26711677645
41922.21891545381
42539.46355710085
41197.06764208909
41331.87127832332
38292.47615980687
44529.57212837799
44342.6847946909
43633.12631308862
43212.51693867378
43344.12307097018
41561.1710086369
43307.39275951676
43345.74038016464
43275.72435130907
42729.25623069992
42567.69944049172
42322.28361019299
42108.73253862285
41942.30338896502
41437.09697807147
41508.33151390275
41925.63955726094
41958.75479077442
42041.83251559398
42157.15820503508
41936.75947044808
43056.43816304137
42421.26504328348
42336.20582896441
40607.75644169413
38276.82924074952
44577.50615099638
44571.44007563533
44160.11119315496
43456.87751681802
37098.93834244206
43177.44125741706
43378.92983048633
43118.67555738024
42740.34389331494
42480.44872472348
42277.13125704685
42082.93436047003
41576.69197721872
41531.62602775264
41471.22858503078
41943.62026751514
41996.99676474158
41941.98405279167
42028.47142505546
42112.25644631041
41933.79353357781
43227.2191699101
42598.55681890918
42349.66553406716
42702.39537464377
37214.78312055561
40693.66753526536
44262.79788292733
44576.40841147773
44358.92617484707
43616.09920653061
37297.71273982305
42087.86867150108
43430.27046574344
43185.09084579114
42441.57544699229
42106.16313641295
41952.44076957193
41763.62529143522
41665.37675288352
41647.33179905074
42023.95211369943
41658.62751389068
41907.10011084885
41953.37777294476
41935.47751090034
41869.5667240922
41961.55401193269
42150.07726768463
41852.84293324814
43451.06747357402
43107.91421156898
42518.64099204983
41182.14107220087
37414.62676482387
40708.53890050875
44384.82471298922
44701.13217135419
44207.98404348427
31953.09791007516
39412.50167109162
41517.38201616442
42351.47303484224
42268.46076043904
42529.35381829779
42165.82874339696
41844.89345097242
41865.4405765615
41837.0773344044
42223.69913005718
42030.64438346243
41862.55773812264
41915.85513459445
41875.31409006781
41835.64002357822
41837.7467588357
41954.53431444702
42012.97918117952
42041.979286495
41836.02652463912
43682.30377320795
43492.44681435207
42762.34007790121
36475.60035224812
43636.42491434168
39615.28542667959
41621.19295203985
44847.31707635667
44500.46965855343
32306.12908565063
32371.47605218197
39394.61809002113
42143.76139745921
42099.15526820708
40932.01011513192
41939.9093774364
41868.98355976907
41827.43025314801
42036.36779496733
42163.23365065485
41919.37063733229
41860.13136096638
41815.20919809047
41804.48052949145
41939.65419319744
41734.55460640433
41942.54482280361
41813.3603406503
43503.84514797419
44297.84675307039
43474.89931470786
42760.92671653516
36376.26803914132
43653.88095245621
40030.2455439507
41358.07950470049
44728.94263720886
45203.83010255102
44681.85060553049
31610.82900946384
32275.22935739016
32871.96606858646
41894.84661804573
41665.82014694548
35152.4373924421
41818.76394284036
41794.98383399499
41852.24288049564
42291.50248501277
41870.11277137997
41907.79778384226
41826.99071067326
41793.12680527168
42019.37773089804
41024.56766333417
42034.01321187144
41769.35840389073
41838.52748567227
43713.41773760742
44564.8905224118
43923.5350988565
42966.1973532919
36660.37774197668
39318.1574409139
41158.65462395066
41830.17268053112
44911.3176418515
45135.64583877624
44737.01392557322
31497.52854730966
32861.9155175956
33122.05132958239
41794.01705292876
40550.05468981492
30838.44183097366
41821.4497670011
41866.71518924695
42094.798799746
42584.31079738956
41871.22823341224
42031.46335525011
41820.77229790048
41803.33337484828
42104.7260736941
41016.86206759843
39235.06822630073
42137.32131219563
41758.75559941698
41832.25170721272
44413.40887032139
44681.18286958769
43878.67251618887
43567.33630178675
35323.76168528588
39743.95446937706
41860.78776401725
41767.56959457883
44897.89728835403
45196.80095546506
30953.19010423346
34558.27500767577
31927.29819112886
30747.41215238359
41658.43652728634
34112.40752259403
31029.78639609523
30574.22309920706
41753.81155788113
42078.3835202392
42230.42229400099
42914.36228699573
41915.35698957984
41974.19333501063
42071.77538114617
41859.19658101494
41799.35823630844
42208.04455924132
38064.77673008834
41491.43917452502
41737.06199511047
41775.11011180489
41886.75707958556
44390.74570246751
44781.76403901313
44563.34912800648
43841.38941064105
38344.95386789363
35452.22594622771
41386.70397801817
37522.45678052515
44613.06883988806
44906.77916251564
45082.43858481105
35005.4827274964
32373.62966711772
40805.2702913039
32299.04318327274
29049.62328670281
30484.84948271002
40997.44102747825
42066.47247652823
42601.90875462165
43310.12996263256
41904.16753005874
41962.24097351946
41848.52108446084
41932.07155291913
41856.67360500519
41835.93833799417
41947.61303826398
35761.85574895821
40782.90512790306
41739.99895371208
41782.19743502083
41900.12973226228
44695.81297598254
44821.41700842088
44519.4161387726
44370.66886541738
39524.33787826702
35381.10626219078
41146.31966587617
38945.08457606112
44600.0848703272
44960.48270109713
36236.9570310093
34029.73177395766
31814.51298952549
36825.25799241292
28121.60663230059
28906.9567442234
30163.04092986268
41890.84674188087
37827.20989832989
42494.81731342769
43257.06861670975
41909.62282382702
41912.68525389338
41771.19307800049
41861.09996828845
41857.8420085716
41883.57330010575
41822.56448001887
41877.35840669945
41740.49216375336
35944.76998922809
38113.33935218672
41751.83448543893
41760.62309751233
41859.40009395411
44955.92102111997
44794.67672114352
45046.13649737871
44621.69606752066
44033.99570039696
38313.84735234316
34602.77681062038
34609.41896244454
43349.12569264328
44976.06036758194
36166.76000919998
34481.19114477259
33415.2010534678
34679.68674519012
28119.20132732185
30520.24552991421
32114.18735565813
41160.6837876237
32314.64527607291
42754.49601428526
43758.13023273452
42889.88987917951
41888.49850277432
41769.91956016574
41728.51736088673
41805.7535291908
41821.65714173941
41843.97195578268
41830.45184553736
41747.62052445822
41411.8601278957
34748.24007237524
38089.87543093127
41772.21073040691
41781.8898510103
41869.45072587321
45425.67250553316
44901.73100419911
44655.40120347059
44057.92851431775
43696.9623778424
38305.11233136289
34912.42250837836
35684.5629636248
43827.71732155489
44796.14478990684
36967.30895163354