/*--------------------------------*- C++ -*----------------------------------*\
| =========                 |                                                 |
| \\      /  F ield         | OpenFOAM: The Open Source CFD Toolbox           |
|  \\    /   O peration     | Version:  v1912                                 |
|   \\  /    A nd           | Website:  www.openfoam.com                      |
|    \\/     M anipulation  |                                                 |
\*---------------------------------------------------------------------------*/
FoamFile
{
    version     2.0;
    format      ascii;
    class       volScalarField;
    location    "2000";
    object      rho;
}
// * * * * * * * * * * * * * * * * * * * * * * * * * * * * * * * * * * * * * //

dimensions      [1 -3 0 0 0 0 0];


internalField   nonuniform List<scalar> 
5975
(
0.5709880174718727
0.5688969539646679
0.5651264416287115
0.5749514296394356
0.5689949649683833
0.5811231791789696
0.5802786047724074
0.5765745006064722
0.5874887894577321
0.585328659233874
0.5817911645038272
0.5778223028945355
0.5935922923000617
0.591424770515702
0.5889588832239337
0.5816721912917514
0.5774087542659632
0.5973999278134507
0.5964214199895195
0.5928092485592492
0.5896508163692757
0.5861270696944405
0.5844299333511704
0.5994833240643279
0.6001139886275277
0.5980434023419472
0.5923860617722865
0.5877350883480994
0.5979849674312468
0.6019893154386944
0.6011452026174174
0.5989392456893416
0.5935961642919897
0.5866535356935382
0.5918242472650453
0.60409028075463
0.60281294103845
0.6012288738497235
0.6026113692010642
0.6013905097268606
0.5970023373452614
0.5919819667010486
0.5938384824943871
0.6069625079420234
0.6063943485111263
0.6038994017717849
0.6030855003476006
0.6014415025224094
0.5970731507607182
0.5952640511842797
0.6100664721470557
0.6091353819867252
0.6061382038265324
0.6074760313294238
0.603356548231857
0.6022050218095631
0.5999949812429601
0.5999414537239873
0.6138824631484451
0.6131129342737391
0.6103090160604647
0.6087982948362147
0.6101100478563138
0.6058960121488842
0.6030084991502912
0.6012018111208538
0.6036626625446655
0.6178735482745676
0.6154709406734084
0.6118111935107249
0.6141725443337032
0.6122532854688709
0.6102694595588597
0.6123405705826176
0.6080297703209866
0.6060742320833404
0.6050722481456949
0.6073350357174588
0.6224971753778541
0.6194070080195976
0.6160942210265294
0.6141137715522438
0.6141636602000234
0.6152601753608049
0.6126740232448453
0.6116303085279112
0.6110720948077735
0.6112642604168942
0.6281473300509473
0.6238029652890388
0.617610487348545
0.620233993717645
0.6157026635173567
0.615037217811073
0.6150963903178044
0.6175400111184285
0.613913272128911
0.6127380745477847
0.6130939336930982
0.6145662621699202
0.6140765995098095
0.6265563970681909
0.6277221542136751
0.6217162253266593
0.6244766273692232
0.6189608028588999
0.6175576220707074
0.616568174246157
0.6162498918013594
0.6187141558372986
0.6178135858755683
0.6176278921867883
0.6202495562979113
0.6178203766796715
0.6273566318521075
0.6258755095078665
0.6277834172187585
0.6219957738947064
0.6235068227525902
0.6188292244882461
0.618717256783902
0.6182613067681934
0.6212218349016918
0.6207472437073199
0.6213417805331175
0.6247880197538207
0.6261973357469973
0.6245477967450185
0.6248443212971542
0.6250820988525972
0.6231979482810283
0.6215660259775294
0.6211529513055062
0.6220204911941462
0.621103605908176
0.6248884312722485
0.6242229532188412
0.6252657619285499
0.6271701662504617
0.624566995810904
0.627521825569331
0.6249878968481967
0.624205199987919
0.6236383553833066
0.6209065318289178
0.623559458758878
0.6234396610817594
0.6227520163907976
0.6221065591137802
0.6226101977901861
0.6247404971751834
0.6240257020571864
0.6271164917914703
0.6288339533951169
0.6261319906596761
0.6286066655425768
0.6298371145480385
0.6285185118476618
0.6248313010692245
0.6205193666676787
0.6210818052878736
0.6185464087357634
0.6209699691685847
0.6237452660301989
0.622704488718278
0.622808215423302
0.6243082545321044
0.6275175141354294
0.6277309073135922
0.6306969677856504
0.6315631006271984
0.6330512621629559
0.6291186696574698
0.6314569124338136
0.6269455666479403
0.6298532948247693
0.6228379929768215
0.6201679956035021
0.6166573004754196
0.6188580193202302
0.6225982498419946
0.6229622502485367
0.6230820141673267
0.6262103068444831
0.6300939372074731
0.633932548128384
0.6334610021998378
0.6353473834723505
0.6229565005593882
0.6288967071621955
0.6321299226347886
0.6266154018582761
0.6287963690433139
0.6237722007960257
0.6180370894502031
0.6159561855167751
0.6167782419977804
0.6201821580984508
0.6215918079351778
0.623003705794945
0.6272825312849155
0.6325549585303646
0.6354202939939484
0.6371994762909099
0.6366040161288407
0.6161364742480466
0.6190436456030241
0.6259439216543664
0.6322969890829576
0.6293634635065429
0.6231173629876877
0.619354598143082
0.613392335956892
0.6153674102857813
0.6195200615703943
0.6234141037814515
0.6286758152620781
0.6325806834018305
0.6360862866560183
0.6372088478700695
0.6383790272000365
0.6370284555005747
0.6145694581055134
0.6136725807738722
0.6159391834545276
0.6260915264284519
0.6312051281358552
0.6299874786374967
0.62542507180123
0.6177458115063099
0.614125496975424
0.6134851062258823
0.6172325244972759
0.6211171663694715
0.6261672144359713
0.6347059033805378
0.6371635658911767
0.6379437374458972
0.6335941270739218
0.6169941154942253
0.6151032882462509
0.6131184352521771
0.6142310523051271
0.6161037225714463
0.619338213395119
0.6308493935465553
0.6291311463067397
0.6235998991092851
0.6197664540496984
0.6135031060892058
0.6134727916489742
0.6170103179945989
0.6219596763511133
0.6267877428157445
0.6307454280127873
0.63508287518683
0.6377779632052808
0.6303759546988206
0.632757829859816
0.6198854294966035
0.6186253838919533
0.615591692217724
0.61509647036919
0.6130228612783852
0.6132932641066763
0.6133145077741352
0.6188538886976664
0.6280637376017233
0.6260670969832248
0.6247737161884731
0.6167091458462308
0.6120236539678497
0.6147904737735158
0.6133746933959816
0.6184184835136327
0.621135860879687
0.632267878325919
0.6332680396308574
0.6249721949893855
0.6283392038635628
0.6206495649430294
0.6211284237842162
0.6172368575690232
0.6192370626527247
0.616107188435519
0.6132609912341266
0.6133145917541547
0.6209978477866346
0.6146688753893802
0.6274012251991186
0.6260442612305503
0.6211449295902023
0.6176432690158916
0.6119398656129532
0.6132014383838631
0.6148938271191041
0.6132834626085581
0.6198806879914752
0.6293378869805134
0.6327750057632719
0.6285515856671604
0.624478091499917
0.6108413767440269
0.6206391685376335
0.6219597656020343
0.6175639413777786
0.6186243746024213
0.6165966122589096
0.6126791088440171
0.6153630451190973
0.6168387593276914
0.6147329861934511
0.6253608428541422
0.6225280627704708
0.6225303840487869
0.6152502029201077
0.6124140142441251
0.6133780101067038
0.616202352502922
0.6287453728312826
0.6306031358172394
0.6265479530425034
0.629421126316414
0.6217461613371943
0.5884129790027186
0.6068424106898315
0.6182880270818655
0.6221688688801804
0.6219977804911083
0.6189866878540231
0.620630922123182
0.6182690219224161
0.6135330801628465
0.6158660006867495
0.6182494224998287
0.6132931066085843
0.6255582110286381
0.6219036225934729
0.6199631846207567
0.6179063944197652
0.6148376046750804
0.6163379810706527
0.6166235368698126
0.628006742457502
0.6300906464755768
0.6267008857770617
0.6286967354952657
0.6236728152438357
0.5721014164386458
0.6037928057992021
0.6210982464093185
0.6224251272322153
0.6233329656757181
0.6212213864006036
0.6201841019974265
0.6183117606880738
0.6141858605766206
0.6145525489126265
0.6225103948562223
0.6170444025477657
0.6217896479748459
0.6180130137193268
0.6179221213012005
0.6180771306940949
0.6299376477961093
0.6310134711519921
0.6256156710310984
0.6303156658861747
0.6220712569746067
0.5656530134550669
0.6113761785516741
0.6214055928940023
0.6235877087576118
0.6260879331098789
0.6234242935961571
0.6232691198283429
0.6189609895977735
0.6142552881901552
0.6162579063350894
0.6224386967673451
0.6155623626368946
0.6218006852301498
0.6216699532032969
0.622785455021555
0.6318390910439929
0.6293564832921723
0.6297256806860874
0.6267251178792854
0.6311449442128918
0.6259342301725555
0.56823642446517
0.5649272134567874
0.5985225139225006
0.6243023923340133
0.6264725580583783
0.6286454738451522
0.6255805846262051
0.6248593642757825
0.6230508345380601
0.6117964895286907
0.6175809431319516
0.6167283935928799
0.6228226470829044
0.6123519509812005
0.622542176417624
0.6256124560378011
0.6331682917745826
0.631528108539388
0.6343604614814419
0.6328680984170115
0.6334175496864269
0.5642918950948602
0.5643697454535431
0.6096100178622073
0.6206800874563593
0.628191850491403
0.6263526135210067
0.6245910508463223
0.6227568590833572
0.6144257462752424
0.6128477587960456
0.622231600176376
0.6080919521626048
0.624411041382967
0.6287930070566844
0.6323733073358013
0.6337601458141412
0.6334371329907873
0.6334568992210153
0.6369714571339951
0.5639835031667051
0.5647057283058589
0.6077805297887999
0.6253079564963225
0.627534002593626
0.6253905284240971
0.622276879434587
0.6136839881972157
0.6163258966044772
0.6064689230925643
0.6230322244106556
0.6211327937662239
0.608825813739476
0.6259823024168749
0.6334392193879211
0.6333691456595308
0.6312509490200258
0.6323915936874649
0.6317846373845768
0.6339347887024038
0.5625458516227315
0.5650968158300838
0.5732530167933889
0.5937151495705993
0.6211391322109733
0.624699571002666
0.6265359479872475
0.6238249356867838
0.618561355701135
0.6139087176970035
0.6023255573667343
0.6220901988665015
0.6060546097880138
0.6242089479185853
0.6240690390549795
0.6265370991568012
0.6239523600284448
0.6308450822752463
0.6284942994268639
0.6261358060639114
0.5620514273765945
0.5673014291871041
0.5748985625483197
0.6042953564721535
0.621658041135677
0.6250288303716508
0.6253023552957763
0.6228351181115689
0.6164520338793033
0.6028421024367108
0.6199508174494596
0.6018892650200275
0.6112587772861373
0.6156295789020398
0.6199206284669213
0.6194515402386102
0.6254823278763406
0.6215008620076955
0.6254115419459551
0.6193044357647409
0.5687792823795593
0.5601646212190771
0.5604357352474512
0.5893929902341106
0.5807837919947145
0.6161184246630576
0.6236072212735317
0.6244284918919334
0.6194974835211114
0.6012103996873764
0.6007575859407434
0.6097450043687623
0.6034017054961806
0.610266453318602
0.6069858687366978
0.6064487663698757
0.6073732142381478
0.6078975768386495
0.5713874587789307
0.5608927514836972
0.5606569281651814
0.5972627277410713
0.5850734665549354
0.5802205198579963
0.6154766896997819
0.6234424518664721
0.6231689077853402
0.6193325012550618
0.5976412632610936
0.6047445117127273
0.5985704818665598
0.6125136312903213
0.6009984811306737
0.6049250842093775
0.6069186913263234
0.6072737659385383
0.605609698653465
0.6074658407442078
0.606709653232406
0.5676515904758391
0.5784987273232034
0.5597688047937913
0.5611509037515428
0.5887321092603609
0.5854620723864639
0.6199518280811649
0.6213189067071165
0.6227758346801074
0.6166436337850907
0.5976256644265233
0.6033554405264808
0.6009368006026896
0.6088953277918714
0.6035081595843306
0.6027047392388348
0.6101889134104325
0.6101462463673355
0.6110917742681179
0.6139928894948614
0.5718372758071526
0.5809048335908741
0.5631078210149585
0.5560549453946715
0.5720830349046651
0.5960799835760211
0.5883443958577953
0.6186543741340593
0.6206599226573717
0.6209129645584507
0.6166538738919741
0.5980749564383442
0.6058798036876546
0.6002434413302333
0.6100742138649484
0.6070899981541047
0.6120711771267845
0.6098423520189148
0.6149192550617767
0.6189659677448714
0.5789080005070726
0.5694889803436085
0.5866248361784793
0.5608849875859178
0.5570396786970333
0.5722161256108369
0.6155327635611169
0.5938696837243047
0.6200742241782641
0.6137103652830742
0.6043410577371183
0.6044850771021538
0.6070600901122951
0.6086484806404544
0.6152011885155226
0.6126308308179105
0.6186705871643142
0.6184464283847971
0.6211533715892709
0.5826982357037969
0.5733949331569226
0.5899673869508979
0.5560010511753019
0.5641906993300307
0.5791567473204797
0.6117846310817587
0.5967937980232543
0.6149917185688685
0.6050328008745974
0.6058669703640838
0.6074848691258039
0.618596077736784
0.6140111315081417
0.6212513096183565
0.6210996624944169
0.6220720957616421
0.5883948048647385
0.5805631980018967
0.570798446227079
0.5945708918011731
0.5560450633405983
0.5626597937232777
0.6062856217123713
0.5688789110895719
0.6121332213406203
0.6022270970286788
0.6122062453187255
0.6043589733628132
0.6063158154742623
0.6057619010927708
0.6083976574991071
0.6192974773957299
0.6136659386798623
0.6215952670836853
0.6216661188922039
0.6224361102329856
0.591885105737012
0.5843519348928091
0.5740437035131442
0.5979229936439471
0.5521048036832119
0.5555883886543164
0.5683359233014258
0.6075160145479467
0.5741502700477766
0.6088529031748002
0.6032772078997586
0.6086576526508544
0.6065340252800562
0.6072956643723928
0.6208146326716391
0.6163993093738663
0.6220370044984942
0.6221516334149778
0.6211518337687717
0.6225041008898393
0.5967872291262408
0.5904117230716879
0.5812658077149363
0.5519153986754571
0.5525593571389504
0.5685477402227562
0.6052871447332426
0.5957313226860335
0.6067341656262023
0.6079429230930661
0.6070900797184271
0.6064599508943884
0.6204381925052402
0.6149875440243158
0.6222408745619638
0.6220291792382702
0.6216099236399477
0.6229887074225605
0.6006428956340297
0.5938900594021757
0.5840116233123834
0.5485546150888022
0.5477201755114435
0.5583191126444726
0.577843683845873
0.6081487867067764
0.5937410778916068
0.6123279079759057
0.6048570529425593
0.6102519128780161
0.6081336254206249
0.6169970726154633
0.6213439312605016
0.6228343096327158
0.6227008555655562
0.6220529413553419
0.622450187904085
0.5993872058438532
0.5912554073881022
0.5520122553399037
0.5447419122022337
0.5566841291750307
0.5777007490405172
0.6061180937652256
0.6065518836271508
0.5804178347742751
0.6132774915999569
0.6083596888163202
0.6093845676122338
0.6155721415150258
0.6206318224759879
0.6224099507753529
0.6234745534690911
0.6234001826153273
0.6223406412190333
0.6022547187118779
0.5943795350897498
0.5477386827630486
0.5440060613293838
0.5662656702202908
0.5477618244709929
0.5841700566997654
0.6083076902487702
0.5934159533468675
0.6183325166892564
0.6084718658253951
0.6111017099582287
0.6170216340561758
0.6221922462361557
0.6212213811792164
0.6235814455935518
0.6230176571961354
0.624435636452334
0.6227261204371296
0.60675396341564
0.6001582864991618
0.5927165611302083
0.5517766318191244
0.5429085369421059
0.5625037436456911
0.5475001628344185
0.5830275808761529
0.6072878221956458
0.5911442146410624
0.6231283821998789
0.617276250548124
0.6118593026067566
0.6138081366980639
0.6167973718223181
0.6193179080075061
0.623561101630746
0.6213219432984348
0.6248434979813116
0.6188542153619054
0.6088128558979552
0.603878235344009
0.5961608419646344
0.5719298778487633
0.5455165979308463
0.5449200354678898
0.5552940977020949
0.5678866578318549
0.5753348621814969
0.5918441504774195
0.6133491271443998
0.6267088610556363
0.6215048254400513
0.6116547698875228
0.6127780182868254
0.6217997108276608
0.6102568339175723
0.6186805284910708
0.6097233770580338
0.608216175912195
0.6024231578726839
0.5746711872766068
0.5512450115586396
0.5469824869207484
0.5555110795553713
0.5630795673938604
0.5771120268062319
0.5958128365570604
0.6314108155990098
0.6257657489365758
0.619980392714733
0.6137484345363303
0.5940083630685928
0.6080757139269082
0.5983725756281907
0.6034580485891947
0.5902504586433973
0.6115858973279281
0.6033521169502941
0.5519594942393512
0.5543164375376674
0.5484758635926311
0.5655764745686438
0.584982752026598
0.5716307525149834
0.5937661648917525
0.6345876611969945
0.629840785406819
0.6238116699046683
0.5954649012464317
0.5693029194028253
0.5812376472838402
0.5598547479617862
0.6141305056258923
0.6066140740533921
0.5577236756454121
0.5508643848607278
0.5652127612763785
0.5831088202310459
0.5724462019302757
0.5989148480776166
0.6339281575694677
0.6385630680619011
0.6290983547829139
0.6216940713192416
0.5717109372393865
0.5617702442127531
0.5626496505108954
0.5670588381507996
0.5786551143336598
0.6135214350796575
0.6031849475021079
0.5628214376760676
0.5578074174045875
0.5554478893994759
0.5707205277865784
0.5909118911247355
0.5787106397528147
0.5982875448449466
0.6376198040358161
0.639606133775201
0.6322988563395867
0.6252104988313385
0.5550863669164899
0.5556201279742184
0.5561212944721122
0.6146732672155718
0.6078587558906143
0.5655081020918246
0.5613066591266934
0.5571928290476144
0.5725098141426024
0.5863437657288642
0.5797162312563466
0.6053838553554951
0.6379352459880817
0.6417313486772677
0.6356204905752494
0.6304249030271406
0.6220671345150288
0.5546914928052707
0.5556492759012471
0.554163842000834
0.5693888026512972
0.5616837174811692
0.5788412213943347
0.5913449884853643
0.5852131067721597
0.608560041220705
0.6415260788132532
0.638578431366479
0.6418827684663213
0.6371265608366864
0.6324104386847519
0.6242516648381052
0.5543429028212427
0.5553342417670448
0.5512952899135231
0.5716160799070279
0.5651008838625918
0.5824199104437376
0.5914755011834368
0.5932718576015754
0.5869934920172435
0.6007416949116476
0.6191332742117271
0.6404236214087108
0.635587646103334
0.6394389404720684
0.6352961578940574
0.6296542248735245
0.5629782903208689
0.5552743526679846
0.5508859499053408
0.5782525955322787
0.5843229479245599
0.5900096488344847
0.5955945935679563
0.5934091651969102
0.5881333690539653
0.6088098948952788
0.6182259023853242
0.6402839464018395
0.6289217905131802
0.6387052308071981
0.6344692331177529
0.6292070413037568
0.5709091446220044
0.5641662380263684
0.5514208562023545
0.5606114016105117
0.5769835016845895
0.5814927018079037
0.5949485043911836
0.5992058157189982
0.597186463119545
0.5922728143569764
0.6081318995423233
0.6249127235620078
0.6389370545490544
0.6251911112585105
0.6282591942683429
0.635702340173975
0.6366685524803639
0.6317209017405858
0.5706588244420971
0.5656898395549549
0.562550962386354
0.5662957816858349
0.5832005234302905
0.5987511577191327
0.6012571753886292
0.5980968160231498
0.6026121723347782
0.5896826348006974
0.6171279050416251
0.6005945229081372
0.623740723816697
0.6384120817104671
0.6228849529540864
0.6313067230077981
0.6233985166939523
0.6373563456375428
0.6359436646906315
0.6307148804646281
0.5778932798494825
0.5727996212397058
0.5648264312526394
0.5731026343706788
0.6008290264622596
0.6036596269617865
0.6028500924143734
0.6063903859420298
0.5904343125089579
0.6158386305564651
0.6041401221178599
0.6276518157948253
0.6381503491725473
0.6230713999860404
0.6309155461655819
0.623176988695664
0.6357046312361013
0.6339484425890978
0.578049076900183
0.5729152177724313
0.5775067269923602
0.6001965936694558
0.6084238621133323
0.6033285892888431
0.6098531140889499
0.586856815202209
0.5962552107471779
0.6078859704472627
0.6222949759184783
0.6274230793346665
0.6384412114740501
0.6247266379172284
0.6269411538470728
0.6223045168543816
0.6243855428893054
0.6361886155546397
0.6332504390270783
0.582480962761437
0.578270334719885
0.5758810147855464
0.5823912950200894
0.6028637777232944
0.61135268094952
0.6071667187924831
0.6143798479032062
0.5910770871742452
0.5955357810810563
0.6080146807095848
0.6201527507004102
0.6374465675246783
0.6384502489924473
0.6244999152178701
0.6319764209388132
0.6286628279537875
0.6235562532648445
0.6239240152389874
0.6324925354513998
0.6355749538614404
0.585026175106143
0.5839204590239079
0.5888929542615836
0.599471618206268
0.6073201142278278
0.6162038477837898
0.6091972870519196
0.6188255016106058
0.6141595913256496
0.6110568425151685
0.6266399999637452
0.6362066416724859
0.6378061964520838
0.6288582166783074
0.633408810181211
0.6254102222921357
0.6247990691133831
0.6330950144431071
0.6333358854596949
0.5899053507712789
0.5869572343179847
0.5876371538812336
0.6004126300073062
0.6086860390015858
0.6168923261552776
0.6096094077752646
0.6228680628593048
0.6178633206762388
0.6103585933818617
0.6233944552184825
0.6380187142469192
0.6310807984454051
0.6387447635801042
0.6264630658358329
0.628798998775999
0.6250828357603123
0.6326036742154684
0.6348284908743385
0.5946857309230387
0.5934111532897659
0.5956138712171044
0.5991039947017366
0.6054098175025127
0.6128315184483183
0.6211228270130641
0.6125296101432737
0.6234758243847629
0.6255778520797107
0.6154119511462344
0.6276620074862383
0.6349342249567054
0.6387453419001056
0.630627755547373
0.6286280124469277
0.6244506907506264
0.6331369709107708
0.6267664034416399
0.6323103768557859
0.5975609397324347
0.6006593742147261
0.6033355170250938
0.6070153254093692
0.6143371534809892
0.619433727205711
0.6240679584618117
0.6164303478579506
0.626954041246522
0.6288547114621108
0.6142300061323076
0.6237696519962364
0.6343102321584846
0.6406483322353881
0.6221069201704754
0.6281354125153378
0.6245900959102233
0.6399953769270994
0.6309800959449809
0.6262175530548512
0.6305909772454605
0.6033940837877591
0.6092151688684327
0.5999348650332114
0.6116602416740065
0.6219054901572387
0.6256500291887002
0.6209772792651862
0.6318772572335511
0.6294457179048734
0.6317104006502988
0.618357841500457
0.6247125356816069
0.6309182941998671
0.639857461215696
0.6245049852874065
0.6084451033501659
0.6246044530311641
0.6242274227875735
0.6424627134769094
0.6337982160091209
0.6292351000816901
0.6259396829358295
0.6088896865562387
0.6143204477505103
0.607115209567875
0.6135175438756542
0.620716135328497
0.6294428478527512
0.6226085151829612
0.6342498856638833
0.6311363229650195
0.6356546518246792
0.6166570742277706
0.6176668776808764
0.6295632325219199
0.6424994892882641
0.6032663452010464
0.6060827039146887
0.6237888850895097
0.6236823307806934
0.6429088266227335
0.6399004426760598
0.6301782337720716
0.6234456067437008
0.6193429067913304
0.6120994306729223
0.6072484161135441
0.6234041570560055
0.6307981035981
0.6258897234069364
0.6338085031801126
0.6364397960026625
0.6378060224741949
0.6182409262177598
0.6246879701488356
0.6365141433175021
0.6033218801716989
0.6158547725269267
0.6225131964529983
0.6233704791471427
0.6451416675160325
0.6405530981556616
0.6355911195448752
0.6267655968161362
0.6165225699127248
0.6224416400959514
0.6196277253169409
0.6167142285403654
0.6145370762034807
0.6280030151791948
0.6312166039193604
0.6237456855727181
0.6359318402542097
0.6376838522314974
0.6398560069528323
0.6163622265365853
0.6228688456173662
0.6149650887695005
0.5972331556547467
0.6161389337121274
0.6211005053607475
0.6210441021847426
0.6443017598688638
0.6458731245562096
0.6359817947351292
0.6292125214222279
0.6137754203776757
0.6246379974398274
0.6221196821829796
0.6177170227949832
0.6290281399962159
0.6360947127203279
0.6293205710650768
0.6401298945625318
0.6394589057207287
0.6392289467771368
0.6130394204248403
0.61984251352786
0.6091635682483366
0.5983381834714829
0.6103234061507676
0.6203825780093656
0.6202008900414263
0.6372936809962431
0.6461736909621909
0.6397264058141179
0.6272351542533348
0.6047136907512928
0.6267619133542286
0.6227728871654062
0.6210863789672044
0.6330710841146104
0.6362212574497349
0.6255023995859605
0.6367869419427626
0.6388716286208895
0.637763300084081
0.6102416353139782
0.6165529097724415
0.6158728976625893
0.5988715478867687
0.6162220291917929
0.6208161654074711
0.619589020462205
0.6182188981096205
0.6222727155908827
0.6398996449765684
0.6460197258810325
0.6373641322047298
0.6330200376736996
0.6033670883075836
0.6264410468066742
0.6237388726653049
0.6326771849549226
0.6383261578931676
0.6322598057764154
0.6368597906190703
0.6374069899420102
0.6359207256346517
0.6080888598768703
0.615529266975213
0.5964972846659586
0.6119996662677033
0.6210485867741233
0.6208383688918607
0.6149005975641344
0.620280223823331
0.6347215177423506
0.6476663634107972
0.6398420560021875
0.6308094662875618
0.5934326933551988
0.6292301806495051
0.6231602868938864
0.6296593043193427
0.6360400617140224
0.6378950547452392
0.6259530446135441
0.6330525740607303
0.6368714698730821
0.6330489749865813
0.61809464850937
0.600608909591783
0.5990004038237592
0.5963373624502319
0.6162462141688908
0.6211629234504636
0.6216612157795419
0.6202219618538511
0.614442363609113
0.6242475172217943
0.5991136691797763
0.6491840321560136
0.6455396773348615
0.6385754437388397
0.6330120438997922
0.6289014513525921
0.6342498153410547
0.6357456417002623
0.6377751064854331
0.6324749405223478
0.6304188048528967
0.6380173272986597
0.6345481190570659
0.6319702475351351
0.6161979053101305
0.6064062752672932
0.6004962171984507
0.5954445789487033
0.6123998814650127
0.6218970741913962
0.6223183591753814
0.6222370763699592
0.6171279754447182
0.5961810970259416
0.6229402823445254
0.5986357215896989
0.643007206172556
0.6474162672307525
0.6443862696092105
0.6359799653069341
0.6285273352522586
0.6350987538188659
0.6195870412440322
0.6367734471229392
0.637401081597594
0.6285704439411798
0.6280130315956538
0.6367396538735389
0.6340998324411805
0.6325087968945566
0.6266557131963771
0.6237107681882567
0.6067483463726638
0.602219148394323
0.5962490183385015
0.6211666540615499
0.6222349643262423
0.6233650732013137
0.6228426821400265
0.6153546499503161
0.5787154284510946
0.6166905531764045
0.5842241156299578
0.6492225034449363
0.6449656290499094
0.6360924742974136
0.6295836991335134
0.6382548024190379
0.6178700681451713
0.6365067860939133
0.6371503537101898
0.6369649263256536
0.6303134232591372
0.6279056077702559
0.6233325599609557
0.6230683589463472
0.6204649481935379
0.5966260310099624
0.6186167256935418
0.6230116141119023
0.6225746197044667
0.6229308397867142
0.6242534325878402
0.6230451694587448
0.6289886552875799
0.5900719888734848
0.5916587323370195
0.6087417853822397
0.584554035764841
0.6490060534632741
0.6473623467790908
0.6421860564574199
0.6324280828074724
0.5697514808683098
0.6353005838714609
0.6370149655978722
0.6351849110594211
0.6299610689399517
0.628417020422497
0.6230796245738711
0.6207315243679331
0.6170394004049383
0.6075775327921792
0.6184461296040198
0.6233767118891271
0.6227706344218282
0.6229744351281277
0.6228295107810999
0.6237189618894116
0.6231616790062287
0.624885941825812
0.5914086586693565
0.5991330104260727
0.6300032516945059
0.572253077120641
0.6102496219176883
0.6455459548661336
0.6465754740546606
0.6434662952519974
0.6336466430903201
0.5724326795147662
0.6233294881715509
0.6375863127638369
0.6366503403865523
0.6271083626083457
0.6237916861488205
0.620117854725761
0.6174452451520095
0.6167615710294041
0.6181127698775107
0.6071901141897222
0.6171583621641624
0.6230453892543776
0.6235238755755421
0.6223350138684366
0.6223601674881651
0.6222200286091039
0.6241136318106834
0.6224005942611941
0.6329169950139923
0.6002765271041084
0.599265621829655
0.6138002739609798
0.5747331396716792
0.6105174747496476
0.6454986621379836
0.6477678151729145
0.6400907697174505
0.5135126593575274
0.5956984901942282
0.6163605645419883
0.6274462908283306
0.624944282777975
0.6284116507680733
0.6248870410473507
0.6180345708264622
0.61854791941139
0.6196781364464281
0.6205099383309978
0.6213590984588798
0.6227709316398933
0.6232402184760324
0.6221811151047554
0.6219537778368275
0.6221919873891651
0.6222024778583699
0.6225097418928665
0.6227219207373604
0.6224156646253037
0.6289330245026959
0.5999760614477604
0.6056845269221882
0.5635321748082379
0.6378588554300156
0.5985528649245941
0.6202410769927682
0.6484495461714231
0.6426441249673522
0.5171117480121817
0.5180958225786326
0.5949456523005398
0.6249307582347141
0.6220672098491479
0.6112401160868393
0.6213290101846936
0.6186546097746525
0.6172680931620129
0.6216049275209006
0.6194381618079802
0.6233519962302152
0.6220503852121925
0.6219472215009342
0.6219339363474284
0.6226626633293648
0.619645080388501
0.6217732963997353
0.6222930185570547
0.6028084988864661
0.6406672960260178
0.6055834529845722
0.6196961913877962
0.5624358627716265
0.6364310759708228
0.6029227279340641
0.6173967046182581
0.6457839724532023
0.6526866793492178
0.6445439012555981
0.5092978539977548
0.5169761167869518
0.5236095679693019
0.6221134274302081
0.6183494295750713
0.5473868321326802
0.6204972674295957
0.6173621899509029
0.6197529817998892
0.6257617761805279
0.6229322100745081
0.6227324713966365
0.6221509925705315
0.6219861496799942
0.623433316714213
0.6115186065873168
0.6226709050216294
0.6218551146883576
0.6225860708361467
0.6002602069994457
0.6361836936766622
0.6113812780705469
0.6254570186625884
0.5640820066625786
0.5947324579940493
0.6105310884033498
0.6224116035786899
0.6471901164385546
0.6502589313738866
0.6440664965352561
0.5081216437182368
0.5235004767939557
0.5257185510660941
0.6214243631387137
0.6052589707238759
0.5004892714955772
0.6195368555434642
0.6176766296551127
0.6226925042857353
0.6276717260969207
0.6225788375354623
0.6240850055039828
0.6222870155958738
0.6221994398872752
0.6250252064277009
0.6177194534881504
0.5827842622232682
0.6237005153329925
0.6218661099135134
0.6224770646452051
0.6102063015073927
0.6411942858703145
0.6193084468616431
0.6289078473697044
0.5494252671697686
0.5989850324388798
0.6152021980742511
0.6213790756490808
0.6460068990694081
0.6507361287178038
0.5019301004690733
0.5424701769866204
0.5131891318573318
0.499378890092218
0.6198381203184508
0.5364648436712057
0.5025028682181697
0.497403751246115
0.6198613528299178
0.6199897816677266
0.6232929707536585
0.6338311991913606
0.62326808013315
0.6237828132073989
0.6243896297377252
0.6228050188498213
0.6223964232955804
0.6257404849479581
0.5795050843247723
0.6181588948476459
0.6214520561814575
0.6219543970882175
0.6225455756710834
0.6030248594871027
0.6358367726716445
0.6216659688473323
0.6394715101265498
0.5827808557551414
0.5503679759515835
0.6169248486431723
0.5696322795280911
0.6442801022353972
0.645555643328352
0.6482019853698711
0.5474925600452117
0.5183895366759623
0.6108983441969347
0.5161558099889858
0.4797517175822989
0.4964938148906001
0.6076760130649542
0.6194099168127577
0.6273161759216402
0.6367533994280613
0.6232434211269974
0.6237299899808423
0.6224910054644498
0.622961446961154
0.6228320570007263
0.6225855339604803