/*--------------------------------*- C++ -*----------------------------------*\
| =========                 |                                                 |
| \\      /  F ield         | OpenFOAM: The Open Source CFD Toolbox           |
|  \\    /   O peration     | Version:  v1912                                 |
|   \\  /    A nd           | Website:  www.openfoam.com                      |
|    \\/     M anipulation  |                                                 |
\*---------------------------------------------------------------------------*/
FoamFile
{
    version     2.0;
    format      ascii;
    class       volScalarField;
    location    "2000";
    object      T;
}
// * * * * * * * * * * * * * * * * * * * * * * * * * * * * * * * * * * * * * //

dimensions      [0 0 0 1 0 0 0];


internalField   nonuniform List<scalar> 
5975
(
227.2685129049485
226.2661995380875
226.1967353268913
227.1498537053582
226.5117440398429
228.5156548241148
228.1037781054341
227.7719503835964
230.0559998896785
229.1979227337106
228.3201948911774
227.935212795963
231.0873196985499
230.6268750704212
229.7864687482368
228.093824714484
228.0529444811066
232.4403421659888
231.574192720614
230.8294492839664
229.4166540217684
228.9633442689838
228.9480605681104
234.030494218411
232.7545901102277
231.8542394991648
230.0601292013033
229.4745926155893
236.8082390870714
234.2802241124331
232.9104055826394
231.3040391306872
230.1512762020404
229.4886556557282
229.9168064783117
237.6152341399021
237.1779838938184
234.020611419117
233.4611085314947
232.0040597095337
230.7536403401336
230.1437491148012
230.292469092375
238.7125639918636
237.9977902290511
235.031137805684
233.123693345414
231.7328448259642
230.7173122726423
230.7073810157762
239.9240298665438
238.9779606071421
237.8095487788027
234.5329589537501
232.7751071310621
232.0294685350212
231.2082751023381
231.3198429238949
240.3815819749501
240.3643879633004
239.058996313327
236.637882194223
235.3346770651548
233.3293069462907
231.7226116859226
231.2021826454293
231.9183050528041
240.4528524969429
240.7011682874484
239.9109687063836
240.5421131916262
237.7763646990197
236.6695427669041
234.6545961939328
233.1324232368133
232.3060503964637
232.2502796279782
232.2702067745357
239.9603245343393
240.8205303050581
240.7993342571859
239.8173166017692
240.3511232661768
237.9583741773004
235.3014780039117
233.9228508262493
233.0872164638443
232.9366982260569
238.3538311220722
240.3657597313721
240.9282640466836
240.9514795811733
240.8003304943368
239.092440655012
240.3020984073444
236.9118741589324
234.8346312667544
233.8913599049423
233.1634047405212
233.7261566364171
233.5325067774635
238.1164721446843
238.7695667916675
241.0085191225656
240.1845432704049
241.2313083672842
240.943856297253
238.8755911462829
239.6646016956097
237.412748626066
235.6789526814943
233.8820067291834
234.4823722338777
234.178658835163
236.1605965711785
237.9966941830979
238.8729763290596
241.481966783114
240.964062660247
241.406843327737
240.5497820497736
239.569379327956
237.3834325156189
235.0192909786515
234.449545239679
235.1882817819706
235.4563793071098
235.9141619958739
237.9062937067613
240.468136200611
241.3392902602037
241.8165383172374
241.7175946076543
240.7055329917258
238.5179489849268
236.500165798861
235.6345665065289
235.0799970284905
235.389605416831
235.2358230808815
235.1325229606188
235.3607273278187
236.7552708337475
235.7266252340038
239.1018701134037
240.72342830043
241.6054510518602
242.0158111680526
241.7841904744713
241.5554984594256
239.4882154976281
238.4789781767678
237.097974776549
235.6732416324187
235.1964450914595
235.5886089649615
235.2564881842781
235.3224729176448
235.3959152957624
237.2767375347839
236.6637128163181
238.4857407318395
240.0416487811727
241.3610541933433
242.0161546040372
241.97009612233
241.5324314494327
239.4273876270703
236.8579757598044
236.2864146329011
236.2488380281275
236.3428845776731
235.2603019348386
235.55706697791
235.242358159705
235.5788495683832
236.0444218967596
236.720715551852
239.1390299797396
240.4908990899297
241.576583433414
241.9603384866784
241.9747546953669
240.646800417432
238.0283389128466
236.9900222666509
236.5171374804101
236.6232706065437
234.797709606514
235.139267278086
235.72205117409
235.6674388998633
235.8242536153725
236.2527006621455
237.7035953840554
238.8601659330041
240.0985329796042
241.1316433058504
242.1254803223949
241.9509715658
240.6922693453948
238.0399577138095
236.8377340963965
237.0365983208306
236.8208466938853
234.016371054611
233.9300920358378
234.7324170535063
235.9695160618652
236.3033466037583
236.9449955290497
237.8707314359352
239.8950446307397
240.6825525490986
241.5106710016524
241.5778923911811
239.8517905139217
238.6051809220988
237.2695601888083
236.8957444708483
237.3255233999469
236.9827227193727
234.1487552438049
233.4005683498411
233.3851056466962
234.8577888441464
236.3842822664572
235.6405520547626
237.1266885913787
238.7703921366871
239.7974168319339
240.3051003911396
241.2270676417073
241.2713038192966
239.9851568126208
237.8767644904042
236.9139386270367
237.1887671745553
236.859786782005
234.3568303491813
234.2128147352936
233.3450681158923
233.2302492764586
233.3221081315415
233.8217247857603
236.5083766581169
235.8096621832113
237.9637831566583
238.850166510184
240.3344878729717
240.385346051718
241.2941983023078
240.7515658636966
239.1383605619116
238.1241831982472
236.5582177541364
237.2132702784482
237.3819402556265
236.4313836624853
234.512784645303
234.6451888372325
234.1897656263149
233.7687196542323
232.9471490716684
232.969836129997
232.9050870851776
233.7807180642883
237.2991639352112
235.476453128691
238.1341918079585
239.7969904353908
240.592474035751
240.656655222445
240.4236591359843
240.3391596769353
239.2970227739669
236.1886003083924
236.4792473719358
237.3960649393986
236.1509837768756
234.2583507563369
234.7816559202747
234.4970956900056
234.7389415616343
233.7256059833902
232.9702339718658
232.9032221313323
234.2795871373839
233.1127275656886
237.6093375102425
236.3472878080524
239.3384603863435
239.96724082121
240.4652792484518
240.6648335520394
240.7754491456262
240.1794658074081
238.7092697886724
235.9955116238651
236.214005414686
235.7840261642688
236.7326565321434
233.5857760160355
234.3157861942188
234.9832533338534
234.5052019036115
234.8677553247081
233.5856611537424
232.8150304782493
233.3103293697378
233.8036303763541
233.1641451690151
238.8079780791001
236.0773274447656
239.7330264917456
240.7480751819256
240.2358823747769
240.6948233097332
239.2109236217042
235.9833922689941
235.9301262120155
235.5913721694556
235.7949153724172
237.2863071659571
230.2850915383839
232.5076041773409
234.0409080832759
234.8917175032757
235.2787369530638
234.2023034111634
235.0244569633207
233.8693578792264
232.9233051031347
233.299792056162
234.4361170898674
232.9438861885967
239.1885305176645
237.378668200483
240.9011286048481
241.1238949203349
239.5954314401135
241.0450350659153
238.6631384455966
236.3628158491788
235.8552499065609
235.5046735537751
235.7071707410719
237.1836914850522
227.253499442565
232.0283550736138
234.8141393189428
235.2191001225146
235.4331463043388
234.5684784327923
233.9450881954599
233.6954548077333
233.891036808704
233.3446485603702
240.628821488784
236.7974714933857
241.2350375500026
241.5008719224091
239.5718001800983
240.8059856988267
236.7472733519563
236.0268828092814
235.3543363334486
235.8877997749782
238.4645189586041
226.1627087994932
233.3314721502502
234.9695465973555
235.6540107975009
235.3090954817769
234.6383022141046
234.4779953544001
233.9003080648338
234.8585308087124
233.6357148971747
240.9432627837768
237.9233732210743
241.8442445125206
241.9963952473157
241.2749987941366
236.3845993768862
237.6728719421213
235.8060612909386
235.2604029025233
236.0897512465893
238.7959084562977
226.6003248345359
226.0672377727689
231.3648614919631
235.5954299653758
235.9262110853875
235.7731673030095
235.0258985433897
234.6539822659591
234.5645487283923
234.5328954168521
234.0208457705799
239.7027387570852
241.9205165913762
236.8947454101022
242.151951442876
240.3855707676549
237.0013349759517
237.986038452038
236.5474621019983
236.4433393111429
236.7586878428297
225.9641833233509
225.9655560875619
233.2139555991694
234.9602576788096
235.2841431400846
234.9192215510935
234.7232481359559
234.6275383974021
234.7615951536575
240.0185573588822
242.2248708437942
237.1338082029806
242.3645860167476
240.8528346047667
239.135109657287
236.4264185449564
236.5546622433909
236.4775300101031
237.5433970824932
225.9136732602965
226.0104544895368
232.7517988440301
234.9319332040281
235.1102818163868
234.9007759764563
234.6043553402625
235.3469697529454
241.144384576358
238.5097051396866
242.4561063283554
241.9395049804359
236.6062838138899
241.9683082668906
239.233733822716
236.6903295380754
236.086962826102
236.2635645862724
236.249458982451
237.8948652769944
225.6841735190451
226.0307101463563
227.3789880559911
230.3641606233878
234.1392144432074
234.5178878721667
235.0097137374761
234.7722123657411
235.3814133675249
240.9394628752803
238.6440682056163
242.1730939006681
237.13052630341
241.6908452245861
240.4815415920083
236.2527292257531
235.1322418895873
236.0694422967428
235.7461475299518
237.1418078941255
225.5788663093937
226.1524894470489
227.6442755129042
231.8202294762397
234.2480568022541
234.7843543147794
234.8343704116323
234.7239580451746
235.8343900695972
238.9378358668288
242.1817285091284
238.0855106565889
237.1120851396411
239.2012395692304
235.1762601859606
234.3528973888095
235.2424669803866
234.6367925607375
235.3813361262881
237.1718462249272
226.6898574121604
225.0751517270626
224.8168246203006
229.391314310513
228.5783100487821
233.4176627107195
234.6431903242581
234.687976160066
235.4079932279405
239.0389733007423
238.554935744527
237.9056479454248
239.3634844203016
234.2740982632285
232.4817843992048
232.3112256679093
232.5035437367259
235.9277194370646
227.0623338036158
224.9965748150902
224.7584984782047
230.5581667397303
229.1358152132462
228.5958656395894
233.3028987376454
234.7102855681101
234.9572390576375
235.7370597922674
238.2345479237835
238.6790291565187
238.6003670052551
237.7817191667272
237.2343636070674
233.1482999794232
234.9777318825065
232.4413643198871
232.9139779652989
232.4639768004467
232.8027161728138
226.2453964442639
228.2674875740595
224.5637777197976
224.8075954011614
229.2222311581068
229.309504232471
234.2430544203058
234.5710611539545
234.8594553734085
236.4641545396114
237.7675067785013
239.2023967142907
238.9306213966431
238.7851087503576
234.5743718423428
235.4355875915547
232.9546572943267
233.6800299396601
232.9740637311494
233.4294977286468
226.8006219059019
228.5800471582287
225.1348336533364
223.9564809629316
226.6048144856515
230.5282458298435
229.7731127208325
234.4283720430124
234.8944001373935
235.0371087535679
236.1849814878489
237.2140226448012
239.3881984856552
238.5502367859682
238.5619586759142
235.3464897416732
233.5490316229713
234.5587274323839
233.6114263455051
234.2932732136407
228.0806677581498
226.151701460759
229.5381918835575
224.8458493249395
224.198680027996
226.995181921576
233.8800836088627
230.5928180046135
235.1900922692563
237.2999085328529
239.6952144359141
239.0293509378656
239.3506799049823
236.4966198936064
234.3860070558329
235.5600422419167
234.2892699676934
234.2842000305909
234.4975194526517
228.5793536792047
226.7408474711348
230.0280076529196
224.1195667928222
225.4033642821861
229.9112969351154
235.2939246284599
231.0947481117618
236.82139667981
239.6950347716471
238.2957597340539
239.3025570091477
234.5690676857898
235.5754054442496
234.642254849557
234.6253807611258
234.6597440693316
229.6138926104872
227.9833412997635
226.2173606019165
230.7946063591908
225.7168688425605
225.3966869113711
234.8158567945207
228.9959348942902
236.6820846972185
231.8966566841607
237.4714445178839
239.7931494747767
238.8955102659447
239.8772502734226
238.8817057943971
235.1827231855108
236.4396207856315
234.8814706328014
234.7127807794609
234.693714451176
230.0694502132726
228.5130095638204
226.9161624135028
231.2816567958455
225.6027299703192
226.0830612746244
226.7149601103851
237.2443199526861
231.3338386093163
237.729513278713
232.1033769891068
238.3363322205109
239.9738586505935
239.034708009531
235.1748761782114
236.1307527818483
234.8843101753116
234.6963663495864
234.7303902284206
234.6912698356382
230.9830810641512
229.5573426523354
227.956408286594
227.3359068727964
227.5384072680966
227.2828544533002
238.1030835497322
236.5674409506915
232.6505609859882
239.3075683110685
240.1540722233868
239.9245526415308
235.6694439547106
237.2115464438947
235.1642278510743
234.676823277966
234.7269302917462
234.8471481214291
231.5058971859778
230.0389420152809
228.5802054442933
229.5529218799894
228.6424030792025
228.2008114903906
228.5440786360518
239.9635721856235
238.868678070582
233.4969256060764
232.3161572189517
238.9663867076376
240.062536596441
236.9114022721491
235.5138843386697
235.1623103996366
234.768894376829
234.8376348290599
234.7460170319396
231.0023737101623
229.5405476060374
231.6714628566203
230.2691934970732
229.7551165457056
229.5474867371454
240.7388438056044
240.3002614506077
236.2899478669902
233.6546486078971
232.7920386974361
240.2218419665655
237.8946743047174
235.9813554956265
235.3775385732155
234.9191979136266
234.9826192615179
234.8260888065675
231.3769393315289
230.0810809991165
231.1120314433102
230.1108544127379
230.6429711203279
230.4984227863676
230.2494472343213
239.7635874646908
237.6329937716318
234.4210851460344
232.6440906819676
239.4409962097953
237.0699904618888
235.8107493604759
235.0823533596617
234.8744283221104
234.9382435550388
235.2123365854652
234.8715068785349
232.1507282345097
230.921557861312
229.9315469553624
231.2085122023114
230.0013217841128
232.2698376220332
231.2057745869968
231.6432747421548
239.0009229991296
235.9654164672157
235.1497728604584
234.1159522222616
233.1677718054726
237.7915241467279
235.7958530456851
235.1804564611392
234.8667666503044
234.6640051982676
235.1056601653835
234.6253540415178
232.3576080831059
231.5186019610389
231.0951801252833
232.5987311810103
228.9065280023594
230.058000315896
232.3352234611848
233.0255270076812
233.4045113869763
231.7587728176349
236.8377691153836
235.7492727093489
234.6926332937877
232.8851761093507
234.7724778769674
234.6380504739161
233.4253136479835
235.1655182530785
233.306730184026
232.1931756402271
231.3649559360404
231.1626525764559
227.7604902292142
229.4647468786212
232.7156695623591
233.6528032349161
234.8195078564505
232.7400158474284
236.4345731485703
235.4604098956036
234.1834588074138
233.1569238820871
232.3400065295744
232.6748781810614
231.3538672369549
231.878075349193
230.6172770122294
232.7025547094026
232.1351731278139
227.2725552264453
231.0239106287526
227.315985978102
234.1939048773477
235.4180734824694
235.2041597602518
233.9358873650092
236.9368160573148
235.9741813438353
234.6913313842327
230.6124725759045
226.9537198146938
228.6500007694103
226.0955823465967
232.9384218297282
232.6464981713845
230.3148262172503
226.3888842830155
233.2274098649002
237.1193731092088
235.46702806302
234.496677228391
236.7138316783956
237.5086888558921
235.5736380564823
234.2999190844309
227.005591501535
225.5219702527487
225.7784258579989
226.1760031373692
229.3265572075395
232.1997599597438
234.0579105075006
231.4133641846347
227.9819734938072
224.9407669501597
233.685660944091
237.8411516168021
236.2883861157771
235.6679165108266
237.2093711295522
237.673891504535
235.9625486990869
234.7600185010186
224.5748817999197
224.272397139808
224.5478238904543
233.5980684019238
234.5957383629276
229.4179578993357
227.4576712526898
224.5791789016564
232.2349045700447
238.5219165139687
235.6469501795504
235.9810910082998
237.1062191430348
238.0005847618186
236.5198861439476
235.5641480401484
234.4137988189468
224.506420352202
224.2209124377037
224.3963366722636
229.7114290266442
225.9999664575249
232.8846795087269
238.9771682118516
236.2330213091127
236.7321694520421
237.6648598110968
237.5403581618996
237.8308915620825
236.5771294723234
235.8354215190582
235.0524276257238
224.6724952145674
224.3079694678524
223.8755798815352
227.8998075802101
226.1936066581739
230.4581165593808
237.6547098955064
239.7200389231747
234.2867257996845
239.1143451908095
235.3115008620241
237.1694415255957
237.0845431365705
237.4629644880623
236.2705325378971
235.4839847008958
225.7053163990626
224.2717530249608
223.818333813427
228.9722041523285
230.6287062407669
235.1942143735157
237.7644941521922
239.9939733719316
231.7348488312092
239.1742249951321
236.3558096571203
237.0494702349989
236.0216518485921
237.1190021118732
236.1430028822576
235.6743237543747
227.1371468322521
225.6699981409983
224.0003993616371
225.1316421984417
228.3632705608991
229.2022577999093
232.7924897093054
235.2381191164539
240.1936486345764
231.1544075433257
240.25160754377
235.9277224612006
236.7057276250905
235.6272810479526
235.6770607370219
236.58037198246
236.4791045746421
235.700762608746
226.8758295858099
225.9003034523649
225.7707809913543
226.1514995799197
229.1074429354786
233.3204752049653
235.7025379202172
241.8763142709058
237.5390177328291
230.3057224544891
238.4159649896329
242.1139267930296
236.7355942366737
236.6718126295106
235.0983188747924
236.0526897137784
234.9579984325569
236.5178727939078
236.486094856785
235.9344225324028
228.1037540264971
227.0460218969117
226.1097661607283
227.0405926710637
232.7254903043683
234.0813980417167
242.0856105200349
237.3158381644084
230.2591712699059
239.8030007930609
242.3814191648548
236.1898198398115
236.7631161553507
235.2975665389425
235.8095663529615
234.8947708342145
236.2661475956388
236.2201701419109
228.0397483256287
227.4023232011936
227.7789130927546
231.9903520054291
234.8558706847239
241.8090288888562
238.9347924232125
229.633586364776
231.2271128536892
242.5844900227731
238.4585533292731
236.9294436217237
236.822536497163
235.4643934626461
235.1458620243737
234.8055138192698
234.9130482002005
236.2629844859959
236.5526061992511
228.7510426783615
227.9481597293477
227.9184662235484
228.5131503537701
232.2684618065225
233.9952067889019
242.7044495663415
238.0655344292905
230.1986171664655
230.9967001650009
242.9007909349365
239.8640234816457
236.7209722185821
236.7546624904475
235.2117669797296
236.5871597507969
235.1799106798805
234.6908508783769
234.7237983806138
235.7628529751164
237.1054301979848
228.9802043362984
229.15114039727
229.6161213083434
231.5906451438128
233.0505191159623
234.9999181579321
242.5867782890886
236.2188752840889
240.2894733382768
242.83803503214
239.5748883129706
236.7835373859866
236.7351074730252
235.8901530365366
236.8412760211987
234.7883518852425
234.8605321141355
236.0721766002879
238.0202225138265
229.6999922618352
229.3356060836622
229.729539239501
231.6456077088282
233.1414072778531
234.5247695893813
243.5183306857096
236.7536435893379
240.2503806862976
243.7998748191001
241.7344379856874
236.8866727134385
235.9845718151704
237.6860991148493
234.7607213486412
235.5643323202193
234.6379444341393
236.150706554934
238.0963136494993
230.4751299262988
230.2674135306073
230.9552479512775
231.1945145654476
232.49612267518
233.7947017201155
235.146113339855
242.9378823657614
238.3995284022865
236.2528944093723
244.0185060991471
241.7100202237415
236.6108806540171
237.3149690335587
236.505417444401
235.5123263820336
234.5020613101632
236.1338477346669
234.8944450246573
239.5530808422262
230.9506763822511
231.7220197003562
231.8106326783315
232.5867867053599
233.9133644381395
234.7257258702246
235.6537529083015
243.7526818176578
239.4444244167753
236.8155888503231
245.1953735118501
243.5959357034883
236.9247598820939
237.4808267966208
235.1962094494338
235.850358482946
234.7134963263945
237.2544376368489
235.5450623897552
234.848459070414
239.0920411282818
231.6548547325798
232.5559007435631
231.8148890715108
233.330946554762
235.0213048219963
235.6809536514616
242.7056043141347
238.1448014716629
236.6314739771703
237.4798421989395
245.6113454236825
243.4206334459913
236.5264083134815
237.4484130633521
235.8434382495468
232.9063220302282
235.284753193837
234.7001183147253
237.563401293389
235.9446120483564
235.3433596555589
241.3537287323677
232.5836310011353
233.4642275911929
232.9129353546699
233.469440598771
234.6136387596374
236.2897357992601
244.0012731116088
239.137129123067
236.7853747295893
238.0935845261377
246.2666547799897
245.6870609773971
237.0647017639218
237.772623871552
232.0517881713707
232.4950665368454
235.785009072896
235.0222174913214
237.2924991054378
236.8915803819351
235.5406882853624
240.7554433625195
234.1053204928323
233.346627567529
233.0574222680439
234.9193175155682
236.2432608067216
242.5004615368935
239.9023982089687
237.6751448393909
238.1016178507879
245.9979631068549
236.4635452497501
237.7874687964288
232.0301836402103
233.9583318153039
235.5549771329724
235.021107085217
237.7073311818589
237.0760759360579
236.305272331843
235.4592231512663
243.5022260631258
234.5062764413659
234.3437700005532
234.1158838394765
234.0553650828961
235.7446068744365
236.2774315822415
244.196011356028
239.9308541322698
237.6835719507905
238.5278272469697
245.4426278118042
237.2387111550341
233.314247764665
231.0738240686772
234.0690680049478
236.1921144142247
235.9631331558266
237.4390560533244
237.8695331029481
236.4554776959362
235.9946511545297
241.9481595465867
234.8844760708402
234.6859630219879
234.4689490189813
235.7814978221853
237.0435251995731
242.544351956563
238.6190176127868
238.0215025014449
238.4178682127046
245.7172092132384
236.9040607852858
232.7470320541996
231.0416302823528
233.0931291809472
234.6989327626951
236.2767238755788
236.4753630931007
237.9692276047629
237.1751401183091
236.3586776632123
244.5213280901634
235.1945603895547
234.8375617349203
234.9640426412491
236.4166155178008
236.842318315566
242.5443768892718
238.471206411725
237.5743341092234
238.1499129558119
244.8416946070628
238.4012333473258
233.5649473238305
230.9596749099958
233.9563969681333
234.7653536958457
234.5302862115455
236.8005605735133
236.1676500483188
237.0096887715889
237.7258721769288
237.5123595854454
237.3544372792979
243.307622596012
235.1017540801145
235.3279860155124
236.3710349948978
237.2170761884687
239.0943095984997
237.9449981915935
237.5009478746859
237.9295484803426
243.7134527150232
239.1250028681916
230.2341818837777
233.09993811114
234.8100224086116
234.6956823061095
237.1378227234121
236.9376643759261
236.0640512850742
238.1102190619876
237.9835565356404
237.6416381099901
245.6112200353762
235.5935618048168
235.5563127985722
235.5172490565186
236.859703781152
237.0240874303674
238.4927704600808
237.475790186107
237.1282918247269
237.651751996847
240.0312057234747
243.8367362141778
244.824760813799
230.1771432126449
233.605415190714
234.7961513750757
234.8874442524349
234.4402668384116
238.0403796946357
237.5217977265133
230.6826817952953
237.7097392231382
238.2902215774566
238.3348813763401
238.2402090537077
236.3622945391531
236.320963672252
236.8956860624065
237.0281734765291
236.4884768577087
238.0053453883265
237.002111472967
236.9773831262659
237.2751692655517
238.0920432808998
240.6976207153388
246.1574333562182
230.0378809726193
232.642057843143
234.8754171129161
234.9925239171345
234.6728784910095
238.7290456375654
245.1071377407165
238.1963689086061
230.7518717847948
237.6606189779261
238.8892352496592
239.0752471546871
238.2240173836862
238.6755531201433
236.200237861216
236.4586987144052
237.0082406403973
237.0517711595227
236.2062703834532
237.2605499694293
236.8826160261889
236.8062810019823
236.7508995342161
237.3831455293042
235.6633504935028
240.1137156589412
243.4884646720011
230.1104441387926
234.1150815328789
234.8167377011285
235.1557017578419
234.4745477254305
240.8220970103435
247.988222310745
233.4788706993953
228.3304235987879
238.9377494163854
239.5053532735057
238.9603718704203
239.1034812872115
236.5734161176639
234.3259736068321
237.0220838083216
236.9923396583617
236.6784074161699
236.1557850425267
236.1650513084648
236.5261113385334
235.4324292652766
235.4858612765038
241.945158210776
233.745592323468
234.4300958126505
234.7799418675686
235.1102791027779
235.2557245571874
234.4796445201245
238.4652489766263
250.4427293612095
249.270260083623
232.3837166985774
228.1083079423672
239.2747287398534
239.8496241107058
239.5516122617364
239.3741135921591
226.8327878958578
236.7595244983
237.2242103833079
236.4803455212194
236.3491868801935
235.4891856882338
236.3696827472787
236.173966908462
234.7290533184427
238.1261225342242
233.6010750728958
234.393276849745
234.919961131441
234.5354833762551
235.0737982235711
235.2065308848789
234.4192247404446
240.982971480595
250.9210053702905
246.2388349781065
236.1235248941204
226.5464010362525
232.299954715361
238.8589451246918
240.168285877425
240.1513500338715
239.7891317213214
226.9800002560405
235.217198133279
237.2921439097383
236.2994296986908
235.7646649291765
235.1450809637891
235.6746162152282
235.62944025666
235.3357026567688
234.7195578827223
241.102665862586
235.1463009416807
234.3137284433755
234.3924704442925
234.7400367152414
234.361618880086
234.9294103411844
235.2688979481656
234.2527923661291
239.1572243869783
250.1701334305921
247.1666220577897
233.7284912200884
226.7801243361578
232.2828935652186
239.5349968026049
240.3969583959455
240.5963074786536
216.7662313969821
230.4821594687227
234.6523605329018
235.1374345067024
235.6160902599413
235.7623042393908
235.0655218235802
235.8628321828266
235.7828034077397
235.1933162887164
237.0485745470273
235.6422700701793
234.1678334367243
234.2894167049121
234.4612435706595
234.3247265346664
234.2468095244838
234.8967349380879
235.107854423544
235.1899780940328
234.1530003368274
241.9529639517472
252.5281108858769
245.9488495531444
225.4828643731014
238.3166494528084
230.5632509314431
233.7673266693918
240.9295603112474
241.225860627781
217.6357975062756
217.6618035861406
230.669094595635
234.9260656048126
235.7576987282436
233.2818951496472
235.1449562380344
235.7620917328084
236.0571538784664
235.5811547700953
237.1186780920382
234.2670510167621
234.4254914053428
234.2127608238594
234.1576698132405
234.6398821556978
234.6294856695707
234.9916997483672
234.0722630469994
251.4074188220069
240.8684249065356
250.0888885630464
240.3798684837125
225.307136449217
238.9468413158027
231.289762496188
233.359705595898
241.285476321933
241.2683178283678
241.4951762197218
216.2189982490187
217.4846793789561
218.6995642176188
234.5961287648645
234.7338824305818
223.7128389499008
234.7800173083262
235.8380880427959
235.2501578959206
235.4365552209655
234.1494567741063
234.4353719670772
234.2020181535529
234.07442338514
234.7953115691392
233.702925378476
235.1646800913319
233.9905968581135
234.1029048585247
253.6909770429853
244.0282594123207
250.2735548173625
239.3091256927362
226.4042111178927
230.3039187676966
234.8460168327232
234.1217643881396
241.7429024709258
241.8038139444733
241.9725470459875
215.9427339459268
218.6782575889946
219.4793852810105
234.2910243849744
233.3888052862099
214.648306103703
235.1590777098974
236.1225854030908
235.4965839352066
236.3452445518296
234.2886003171501
234.6175924408496
234.1160137781693
234.0513278142502
234.673000170673
231.313492181793
234.528922530309
235.3534844669782
233.9270641483743
234.1087786285145
253.5521113274552
242.7531253973555
246.8176927711159
241.325828491774
223.9691127835752
231.1452205800804
237.0387400149905
234.1598287247494
242.1133057797835
241.9538787292557
214.8285443361916
221.9248835300091
216.7277536130872
214.490568923634
234.1286150007878
221.5138658317626
215.1146818479908
214.1293435500438
234.6558461785431
236.4309501004071
236.0277175790228
235.8624807555897
234.2761591103986
234.4114198541627
234.7280383234128
234.1362166455256
233.955003241326
234.9799404954279
228.8209833839261
233.8235165949367
233.9613166181914
233.9854607456388
234.388013688855
256.4407486192732
245.3496076082501
249.7183979714958
238.8322226487937
229.2095741771093
224.3986109312217
233.6998260147181
229.470301347586
241.2221539561708
242.3304768733645
242.2851823344596
222.7345868155507
217.5529511175698
232.6896800706019
217.9910425583098
210.937492063576
213.8947002391519
235.0252199045552
236.5852978723352
236.5769252551909
236.9452605796761
234.2228850282218
234.3645165048328
234.1945831358427
234.4849423350455
234.1119409513437
234.0886194278778
234.5254903411811
224.4539775594665
232.9445125679801
234.2129862619732
234.1186080886237
234.5833353361872
255.131735027244
243.3221983855574
246.1296043165026
240.2365937858916
231.317147678654
223.9672022521714
233.7340832046585
233.5911455830837
241.5662678744382
242.2662910610132
224.9457475792613
220.8670758054943
216.4087379096923
225.9866790067975
209.070957958676
210.5413030168329
212.9862574363302
234.9786788537504
228.7760571309155
237.5992882125239
236.4355131642947
234.2062598820535
234.2273117421502
234.0358814557531
234.2412122304562
234.3643480825654
234.1906039377184
234.2280497727739
234.4442204133866
234.1992896472638
224.5962072648981
228.4434398158601
234.3928296945008
234.294532876144
235.0095829855029
257.8745105672164
244.5408482874141
250.5351148119067
241.3499769106488
239.1352334456461
229.565650517123
224.0980107617597
224.5272531976889
239.7708854477719
242.5412343998065
224.8320397863867
221.6451086835912
219.6768783025851
222.1731617989598
208.9596917701711
214.0426706236251
217.1542394399435
234.1003557957787
218.0684668709737
237.8694993649507
237.436317648981
238.5863227082177
234.1509610936986
233.9816373467591
233.9362589961122
234.1064925942788
234.1724826566105
234.3428726325369
234.4172977957441
234.2358217613582
233.6713221319155
222.3563296101584
228.4230603833549
234.8967983787344
234.5872883998452
235.2037247009208
258.2552015855965
248.6359170792929
246.3206762000183
240.2617201738544
238.6415785304195
229.6425298491117
224.4357119670233
228.3150545201466
240.6061831029708
242.53845273889
226.2443781090893
223.0647596109552