/*--------------------------------*- C++ -*----------------------------------*\
| =========                 |                                                 |
| \\      /  F ield         | OpenFOAM: The Open Source CFD Toolbox           |
|  \\    /   O peration     | Version:  v1912                                 |
|   \\  /    A nd           | Website:  www.openfoam.com                      |
|    \\/     M anipulation  |                                                 |
\*---------------------------------------------------------------------------*/
FoamFile
{
    version     2.0;
    format      ascii;
    class       volVectorField;
    location    "2000";
    object      U;
}
// * * * * * * * * * * * * * * * * * * * * * * * * * * * * * * * * * * * * * //

dimensions      [0 1 -1 0 0 0 0];


internalField   nonuniform List<vector> 
5975
(
(181.0215929902832 -332.231659805734 -4.11715181268755e-13)
(180.7330231655754 -335.031687253927 -4.086447368397592e-13)
(180.3843911688563 -335.9674132487278 -4.239719742487677e-13)
(181.4379957242837 -331.7962991700693 -3.521274922837811e-13)
(181.2052750906835 -334.6505726378604 -4.115104420524586e-13)
(181.2485565932965 -327.6285706194848 -2.395502187922817e-13)
(182.4110445999003 -328.667352580821 -3.696212444962559e-13)
(181.8055967212702 -330.0565704113118 -4.058747329996049e-13)
(181.4329815257544 -322.9999745760929 -1.843357364645811e-13)
(182.3214215413153 -324.9386883707555 -2.687308636744457e-13)
(182.1421972838369 -328.2685745678251 -3.574268943251641e-13)
(181.6874368602119 -330.0015934042406 -4.208026497034526e-13)
(181.930060598863 -319.853054657963 -1.421487737181976e-13)
(182.4480305061481 -320.5859612108861 -2.042254266990287e-13)
(182.4864270958038 -323.0759778836984 -2.603991127633102e-13)
(182.5538803910581 -328.4912448277248 -3.939185669318885e-13)
(181.6246323421452 -329.7267789705568 -4.303112222716239e-13)
(181.4399133612274 -315.375280594212 -1.229890348703394e-13)
(182.9024648757066 -317.6365019941957 -1.5931548427403e-13)
(182.5623506738435 -319.8723113778177 -2.063024903463348e-13)
(182.7235739959713 -324.0230107524931 -3.091730391910647e-13)
(182.9660908269341 -325.5467640611754 -3.871694427084398e-13)
(183.250674017131 -325.6424263715399 -4.348050658502167e-13)
(180.7633359646717 -311.2571667713547 -1.36573685202458e-13)
(182.5829804604238 -313.8954185419447 -1.324337793521063e-13)
(182.9853384414363 -316.7572596573376 -1.616392320140099e-13)
(183.1719257064278 -321.7285497011348 -2.820153600870101e-13)
(183.5664082955021 -324.1661865951562 -4.286655494728287e-13)
(179.2104726495002 -305.117714858759 -2.491898395509391e-13)
(181.4953568560678 -310.1213598745506 -1.311608641801008e-13)
(182.6247180542456 -313.3149064131126 -1.38006464065907e-13)
(183.4330319456837 -317.9902844129606 -1.933313857993281e-13)
(183.4398930467781 -321.4646449222664 -2.959827765620738e-13)
(183.7368995161994 -324.2524767048657 -4.582508516414251e-13)
(183.7407353966503 -322.2338861724871 -3.819661958373417e-13)
(179.2070839527773 -302.1842985477506 -2.510583558879267e-13)
(180.2728701873988 -303.1059663574356 -2.323239500949214e-13)
(182.0486726160249 -310.4237862563574 -1.313534192138149e-13)
(182.4467599593745 -311.7469573682985 -1.295833897295949e-13)
(183.7818897782765 -315.5638322678114 -1.746421901928874e-13)
(183.6861095652268 -319.1618107852963 -2.597733657331267e-13)
(185.0063112150554 -321.0535405820335 -4.471514326945708e-13)
(184.5471314417541 -320.5533048172948 -3.865535484902495e-13)
(178.9802602246233 -298.8743278744112 -3.498038810626964e-13)
(180.2696987359587 -300.5086882761034 -2.460053078810434e-13)
(181.9262850828693 -308.3547215591576 -1.380658974990034e-13)
(183.1303140496516 -312.2205957528968 -1.306173885239229e-13)
(184.5578301107008 -315.9602737343153 -2.011355857163493e-13)
(184.5809604616316 -318.9038234060121 -3.171682667843279e-13)
(185.2058021477656 -319.4548090480982 -4.654092395647058e-13)
(178.7713311497775 -295.3575760021712 -4.600147060255009e-13)
(179.9999741095293 -297.5405387947587 -3.228356440288313e-13)
(180.5186069302998 -300.598228262462 -2.460135532359393e-13)
(183.1484990591546 -307.6911425189791 -1.283172096393219e-13)
(183.8965940619427 -312.9217055981541 -1.299112356909595e-13)
(184.6762626638405 -315.0589443583094 -1.818834698525215e-13)
(184.9383557324851 -317.1556950503575 -2.961041171396181e-13)
(185.2641090247262 -317.1644251217033 -4.25004942020777e-13)
(178.75401120001 -293.6330966218169 -5.329774029099617e-13)
(179.3123758012129 -293.5813991951208 -4.406533702524052e-13)
(180.0694580911962 -297.1369320733174 -3.069094086754899e-13)
(181.6107531963942 -302.7638970550973 -1.537153727229828e-13)
(182.9411709749295 -305.5714600513623 -1.315045857886185e-13)
(184.1367680023103 -311.1983000976786 -1.305675319569887e-13)
(185.2918314749981 -315.4536008144789 -2.532896697153832e-13)
(185.1765197681697 -316.8615355134179 -3.268813012628898e-13)
(185.4686944741298 -315.3741607913016 -4.247238466578534e-13)
(179.0051630528109 -292.2458392726184 -6.178443277861038e-13)
(179.1261211171744 -292.3569032441642 -5.091817234968055e-13)
(179.4982337062008 -294.9598257641636 -3.632563281870293e-13)
(179.0919502874759 -293.046409475613 -4.434635705170714e-13)
(181.4532425781289 -299.6605682281959 -1.83030407448797e-13)
(181.9422425987648 -302.4552799744226 -1.580534774344195e-13)
(183.807866672076 -306.8011098805655 -1.262073777383134e-13)
(184.6863139954022 -311.2116691346719 -1.444008100997429e-13)
(185.3255458541965 -313.6436683682402 -2.365957811711237e-13)
(185.138688730428 -314.9351269243456 -4.981917764468376e-13)
(185.6396804592476 -313.7163026624027 -2.788534870423898e-13)
(180.229124939776 -292.7304062130983 -6.847088871723955e-13)
(179.3063601200639 -290.9943871667305 -6.180256236884921e-13)
(179.1287182798507 -292.0609471030904 -5.018534337470449e-13)
(179.7724279702806 -294.8679235666486 -3.094089128006256e-13)
(179.3334814951549 -293.5827320121009 -3.703669725541762e-13)
(181.5760129250382 -298.7177654568034 -1.778168001147691e-13)
(183.5422703264223 -305.0887054312853 -1.314646937677371e-13)
(184.6731227002386 -308.7747004081509 -1.375398617187001e-13)
(185.2678477988094 -311.6962095604108 -4.611977353480664e-13)
(185.6767528998568 -311.5615122371119 -2.862533144971327e-13)
(181.9016715758262 -294.6700066603171 -7.058243233867424e-13)
(180.0309395331454 -291.497697224253 -6.8469972337612e-13)
(179.079270787924 -291.4193012742292 -5.471871348502497e-13)
(179.167142391084 -290.6477482137907 -6.018906680364944e-13)
(179.269193091945 -292.223602345802 -4.132724368059411e-13)
(180.5491806642301 -296.2143717734791 -2.453304551568402e-13)
(179.6526735921658 -293.4780040155752 -3.503853648173983e-13)
(182.7172429845944 -300.8853485370423 -1.225926892300621e-13)
(184.3781958078902 -305.9303013956834 -1.26774566800353e-13)
(185.1803297829896 -308.7656376561183 -1.413146049178869e-13)
(185.5478864880947 -311.4609329892764 -3.411129878664262e-13)
(184.8885031353135 -310.1634157106428 -5.100394987842443e-13)
(185.4055876840297 -309.4199267548662 -1.877362637669477e-13)
(182.3897572220197 -296.2909217760482 -7.123112923859395e-13)
(181.7613754138714 -294.656470982088 -7.06274119173136e-13)
(179.2064685003159 -290.2910567741066 -6.18134238357298e-13)
(180.0171617392615 -291.874446851239 -6.853583411426088e-13)
(178.9853785634273 -290.5146362018204 -5.17893098893394e-13)
(179.2793155267474 -291.6464247534196 -3.894988493050838e-13)
(181.050706104849 -296.2865867948245 -2.243024059013462e-13)
(180.2817481183071 -294.6136779439016 -2.717601642391521e-13)
(182.8724603965804 -299.8195223401894 -1.246281082032833e-13)
(183.930341163324 -303.552682334664 -1.288123081594462e-13)
(185.6159133385696 -308.42574375581 -3.087366534483118e-13)
(184.9721423832319 -307.3554284099084 -4.598252552629126e-13)
(185.1481054950142 -307.4984389284926 -1.991962055754708e-13)
(184.0863795883909 -301.7140559590317 -6.908937243566716e-13)
(181.5610787237954 -297.0531295345702 -7.124379752773157e-13)
(180.9575853518959 -294.5201819457404 -7.045238020685307e-13)
(178.6204839031633 -289.2926801387624 -5.782177971252859e-13)
(178.9117641012533 -290.0093718802456 -6.655596658784138e-13)
(178.8585043751264 -290.3341292336527 -4.6110745337107e-13)
(179.6202476025378 -292.3734622616564 -3.135370691715849e-13)
(180.5004302906657 -294.5720167344327 -2.463688522820636e-13)
(182.7525673576829 -298.9452731444167 -1.272257285797384e-13)
(184.6697220692727 -304.9653258185194 -1.375585209904256e-13)
(185.20659531179 -307.0160016470734 -3.293920593109777e-13)
(184.8960259580132 -305.0685541037829 -4.612365754885712e-13)
(184.8276391796559 -303.9311786244029 -6.790715723177735e-13)
(183.4996124762484 -302.8460955490253 -6.955371049554651e-13)
(181.2172770294316 -297.5126481850331 -7.12944539098037e-13)
(178.9587746455167 -290.8613443249433 -6.817001980904348e-13)
(178.5693071631462 -289.4434122871687 -6.097149061097783e-13)
(178.292461381391 -288.9658895578612 -5.260696877734387e-13)
(178.5718606140179 -289.3896155406554 -4.56476417502682e-13)
(179.3813397565491 -291.7935846804381 -2.851359144784456e-13)
(181.4458701920959 -296.5808069241889 -1.549629528191817e-13)
(183.649236262809 -301.3559494160095 -1.088679635053873e-13)
(184.3832464578003 -303.275121737784 -1.52243612620624e-13)
(185.0298063662603 -304.7528284755135 -2.455737264856838e-13)
(184.8909968559267 -303.9721669577349 -2.854767274966888e-13)
(184.9235827295045 -305.1091942169274 -4.8162715616215e-13)
(185.675980092535 -304.8388897763322 -6.081465539886206e-13)
(184.7732298757088 -304.2631149451828 -6.803986663079883e-13)
(182.6825197984009 -300.556568824996 -7.115793600159072e-13)
(183.8485905536584 -303.3948269011505 -6.941317784433282e-13)
(179.8823315767658 -294.4035106565156 -7.028467509256113e-13)
(178.7434008638336 -290.9208420987321 -6.78323969357189e-13)
(178.0846375089206 -289.1049004839438 -5.843787568895717e-13)
(177.8304142424751 -288.6395801559403 -4.948551548438604e-13)
(178.3465226379925 -289.4466752509159 -3.952635924500014e-13)
(178.5800336749183 -289.872649906879 -3.446535295475274e-13)
(180.529796790437 -294.0849762373177 -1.76177979670224e-13)
(181.407351588167 -296.4724468121304 -1.464871090492005e-13)
(183.1186514306957 -299.5961475746568 -1.085790701152922e-13)
(184.8096310357781 -303.1730441772398 -2.543347432515375e-13)
(184.8930650863987 -305.2770192155143 -5.257103744137866e-13)
(185.3776915394346 -303.3735802454225 -3.631745697533408e-13)
(185.9353534500868 -304.1276888989568 -5.960709108817631e-13)
(185.7592447395318 -304.1475887168702 -6.223458294281741e-13)
(184.9219356241415 -304.2833658030955 -6.817288950510417e-13)
(181.99406069624 -299.2515043248745 -7.176269835528933e-13)
(182.6355045116532 -300.5843453583611 -7.170875923323316e-13)
(180.5367214240352 -296.4975906491425 -7.037314427060124e-13)
(179.1153098721872 -292.6413560180558 -6.770889685608928e-13)
(178.1299831816663 -289.4473139928214 -6.119940902482587e-13)
(177.8258043857289 -288.6429943529756 -5.138497815443435e-13)
(178.0070602422632 -288.9589256184245 -4.294542048306439e-13)
(178.584779692195 -289.653641754622 -3.208191996463076e-13)
(180.7336136240903 -293.8846363517203 -1.606446050318485e-13)
(183.4394683238788 -299.9570480002003 -1.087741307244224e-13)
(184.2742795341636 -301.2220535737027 -1.651335669034325e-13)
(184.6973382705327 -301.8481902497766 -5.085825680105493e-13)
(184.764957965659 -301.2375438035242 -3.713175541274465e-13)
(185.9370616263691 -304.5075040842007 -5.487421875109923e-13)
(185.8211329443192 -303.3271627397689 -6.034274169789788e-13)
(185.2976458363983 -304.3590896832104 -6.68208206948773e-13)
(185.5029302007515 -303.4108371725238 -6.246659538295641e-13)
(183.7641404543063 -302.2549266621783 -7.100874413723711e-13)
(182.6777079946866 -300.7513979953559 -7.177304321347984e-13)
(179.5637513964652 -295.1202277955781 -6.8398934381591e-13)
(178.682662459675 -292.0892550067424 -6.401826239586237e-13)
(177.9636386801828 -289.3473740412907 -5.816104578766976e-13)
(177.7903654410015 -288.6416656485119 -5.166491150804145e-13)
(178.0940720924401 -288.9828664571392 -3.973135656600104e-13)
(179.4779526716835 -291.3325813234849 -2.337292618060216e-13)
(182.3893642276506 -296.6410615882918 -9.334629582629756e-14)
(183.944476420167 -298.9944152872548 -1.598068858334484e-13)
(184.6476903448551 -301.2573964539223 -5.280394295362842e-13)
(184.6082785110825 -300.2955269607821 -2.980490060794865e-13)
(185.3025450193509 -306.5536152743078 -5.323665996102769e-13)
(185.3317860263083 -305.1732559651788 -5.601358052642936e-13)
(185.2886248472122 -303.0934463475936 -6.007574986768972e-13)
(184.7512459996949 -303.1681152169294 -6.9599636834372e-13)
(184.848357538807 -302.6259235611033 -6.795354596258996e-13)
(183.6545959948407 -301.7149929491833 -7.09074569355584e-13)
(181.2153671432377 -298.3852741653338 -7.13626193779163e-13)
(179.6845552778792 -296.1024524471171 -6.833258268792449e-13)
(178.8624335719104 -293.2900749451144 -6.34785932421892e-13)
(178.3112361639658 -290.6849160720197 -5.708841336563559e-13)
(177.7585492539078 -288.5094232610908 -4.67371174521311e-13)
(178.1206128510001 -288.9543020209252 -3.945309662573598e-13)
(179.5725508405536 -291.0477972072052 -2.350081179664142e-13)
(182.5580412308121 -296.2393616115652 -9.233012870412847e-14)
(184.2291532229693 -299.2451548274231 -1.885771610127663e-13)
(184.3724971638028 -299.3921509138372 -5.030142111817846e-13)
(184.7064278381643 -299.4641229755655 -3.070648177817399e-13)
(185.0203433506837 -310.1662606177798 -5.270826120311806e-13)
(184.4176609640305 -309.7328898677547 -5.402015499592769e-13)
(185.0577667895035 -306.4922523080627 -5.618360218782599e-13)
(184.715364600561 -302.4177995762959 -6.384652553725449e-13)
(184.2417288928683 -301.7389265626497 -6.897080274541308e-13)
(182.5661916251553 -300.1031891475332 -7.142781540287838e-13)
(180.9670232264252 -298.0583052073415 -7.105712499804784e-13)
(178.5636343164733 -294.2629835482573 -6.324648142121033e-13)
(178.3398944079171 -292.5445349202926 -5.727088626708942e-13)
(177.9479686059607 -290.3128815378842 -4.959448776485032e-13)
(178.3877486434682 -289.5602322723292 -3.617557504069129e-13)
(180.4915929118156 -292.7578621261559 -1.538859710544362e-13)
(182.0781477830637 -295.0791092743904 -1.032483827476221e-13)
(183.7783261832486 -297.9504338968259 -1.397841847278631e-13)
(184.5127470192536 -299.6263394299525 -3.735306445083355e-13)
(183.7522698935776 -298.9926428132086 -5.572628557563561e-13)
(184.2396158558468 -298.7076707285446 -1.88745553696367e-13)
(184.8261697807476 -309.6523429526438 -5.271461658970298e-13)
(184.6141406646999 -311.6734226462809 -5.299079573855651e-13)
(185.0862993199739 -311.2277862502716 -5.428660568235255e-13)
(185.274270567284 -306.0857084791014 -5.889485358637954e-13)
(184.2014467623918 -301.0938015170828 -6.829368788262705e-13)
(184.8895010180862 -303.2640226829538 -6.294105797222418e-13)
(182.4593475883964 -299.5260361914742 -7.109668650046039e-13)
(179.7497826792996 -295.9629634752985 -7.025674493226954e-13)
(178.5003975108389 -294.4564652577341 -6.362114915486939e-13)
(178.4342793754593 -293.7269142290677 -5.42130102188676e-13)
(178.1302406457736 -291.0991039918417 -4.842902650522729e-13)
(178.6183260074008 -290.7135089847716 -3.551213080560514e-13)
(180.2810436583678 -292.7916209127758 -1.783867372431973e-13)
(182.8699305980024 -296.5783456771902 -8.719998068240875e-14)
(184.0573508815547 -299.7309485540275 -3.726934206753359e-13)
(183.3535288348308 -299.4537190449385 -5.193496460896356e-13)
(183.9960164693016 -299.2894377782471 -1.632259968032964e-13)
(185.0549338623763 -309.0757160781603 -5.32866958606418e-13)
(184.9214941898615 -309.3877133724941 -5.275552607392714e-13)
(185.4435816854456 -311.7102570117513 -5.306728132638355e-13)
(184.9762963173515 -311.7017127045685 -5.37720331113834e-13)
(185.6451548301302 -311.1469751823308 -5.528237428240685e-13)
(185.5954535445917 -309.3082411088294 -5.849630861685416e-13)
(184.0462466799879 -300.801284636431 -7.002646034593643e-13)
(184.6269176796403 -302.8879906378552 -6.715628638624689e-13)
(181.3003237302975 -297.2860767641964 -7.181698281907782e-13)
(179.7911712914315 -295.7382764340991 -7.023532184851657e-13)
(178.1575159049679 -293.6243959999921 -6.131577399848361e-13)
(178.4562642960914 -293.7042707907992 -3.978374411242638e-13)
(178.2218852325185 -291.1515177825877 -4.060430748921882e-13)
(179.0126404409052 -291.7202387413145 -3.09217197765236e-13)
(180.9978043848915 -294.759165241789 -1.29298982673572e-13)
(182.3635928363487 -296.4667974425577 -9.040966306594796e-14)
(183.988638574861 -300.6656894671667 -2.927572331908592e-13)
(182.817640943037 -299.6532978955752 -5.325919573045564e-13)
(182.9775265964466 -298.2207084352968 -8.904707631406757e-14)
(184.2287171271165 -300.6533087489205 -1.882948683481454e-13)
(185.5207568844061 -308.0348150775271 -5.339915895567182e-13)
(185.3683549681909 -307.9528472904857 -5.32431547714621e-13)
(185.1378403526942 -309.2971589259643 -5.277008089666639e-13)
(185.4050816110556 -310.3991459482987 -5.279395468587298e-13)
(185.7410862533491 -312.2860346294199 -5.43997736892112e-13)
(185.6792653007258 -312.2935852264803 -5.460010434240913e-13)
(185.7974915486093 -312.4145933671547 -5.530040970404877e-13)
(185.6282878919083 -309.1458637408496 -6.030050259774492e-13)
(182.7863666802391 -298.5793099555199 -7.204683530436974e-13)
(184.7130118358921 -303.5493390965826 -6.786544608753086e-13)
(181.3294655889538 -296.9630050137119 -7.168168591298668e-13)
(178.741761540322 -293.8186190591367 -6.734492502248831e-13)
(178.1453306426895 -293.3613342833048 -5.37501483636323e-13)
(178.485495526427 -292.9995899887031 -3.986456971340283e-13)
(178.4349706389371 -293.8276558648375 -3.986917430646183e-13)
(179.2866714298127 -293.3564147984478 -3.092608264833489e-13)
(180.240682145361 -295.2797538901438 -1.855958858176986e-13)
(183.2203190349041 -302.4964938803668 -2.945306446725468e-13)
(182.5665473233167 -302.0846839490936 -5.039273420405485e-13)
(182.3044734229723 -298.9760186752989 -9.133971594682036e-14)
(183.5233190135204 -301.8666290729099 -1.181367394414419e-13)
(185.3470313326901 -307.9584857717489 -5.254061906293688e-13)
(185.6134047670478 -307.259316035791 -5.341009223090605e-13)
(185.1135744616659 -308.3685044764654 -5.287520383094796e-13)
(185.3412877453683 -307.7115639608418 -5.330222928747226e-13)
(185.6595182547809 -310.4168640357129 -5.294723771950918e-13)
(185.7646539187747 -312.2988850934109 -5.439996199745376e-13)
(185.8383251954959 -312.4335424559994 -5.565185058549828e-13)
(185.2758707963531 -307.8008009230938 -6.527895653692025e-13)
(185.6013649061075 -311.6298628445435 -5.991476601179186e-13)
(182.3412791922258 -297.8416169775897 -7.204384673509049e-13)
(183.415806845601 -301.5227746422095 -7.120538838481686e-13)
(179.5289689830666 -293.9281506847825 -7.043855215729202e-13)
(178.8557176973338 -293.4389866670982 -6.708719273084873e-13)
(178.3748846176696 -293.9940646247682 -4.336885442816365e-13)
(178.265987888091 -293.0143081096803 -5.40003648325963e-13)
(178.5411709153366 -292.7617993441662 -4.01333243452876e-13)
(178.5657103267515 -294.043003705119 -3.86152412838046e-13)
(180.7413350190939 -296.7345245115146 -1.741410219024753e-13)
(183.0415485295343 -302.7837804000523 -1.666528456780686e-13)
(183.0493967063988 -302.6952557145976 -3.44737550303017e-13)
(183.0280427501681 -304.2562647911171 -5.132117697663699e-13)
(182.7750943301478 -300.7510718567701 -8.769022546187778e-14)
(185.5783455546188 -309.9837312592559 -5.212698504771969e-13)
(184.9475949313502 -308.1765225117825 -5.279815351583607e-13)
(185.034770911881 -306.8980196294641 -5.327908670089532e-13)
(185.2440904045141 -308.2102909527675 -5.272537793468005e-13)
(184.9628175574102 -307.3109431043796 -5.290383196119709e-13)
(185.6518154049356 -310.5102830214126 -5.313252245984923e-13)
(185.6891754904659 -312.7268112934347 -5.576961276481517e-13)
(185.584723590557 -311.1938483380985 -5.454040805264015e-13)
(185.0006612493099 -309.3847828724877 -6.676234471465276e-13)
(185.3606274248545 -311.4812756236942 -6.26646949398393e-13)
(180.3491570324418 -294.8858666516111 -7.238546456602156e-13)
(182.8557318022815 -302.5603498716455 -7.138550411901609e-13)
(179.2757578046519 -293.1604992127627 -6.970227327876732e-13)
(178.159552971761 -292.238452270357 -6.101653258647758e-13)
(178.6490545200964 -294.3692977798106 -3.670486464988817e-13)
(178.3294877891814 -293.2801862765296 -4.370222730610318e-13)
(179.8983862160396 -296.133432231684 -2.360712434186698e-13)
(182.6259280447972 -303.052336187543 -1.545822841811111e-13)
(182.7920514857083 -303.6806060798456 -2.667903713186836e-13)
(184.096293821113 -304.5324752316176 -5.670361270639714e-13)
(183.0247134660761 -304.1666290493729 -4.296496020991659e-13)
(182.084710679889 -300.227308576276 -9.021170474666812e-14)
(181.0268559557584 -323.5150157159938 -4.993811572292327e-13)
(182.9461372177603 -314.4645648646311 -5.236279073283377e-13)
(184.5182022995717 -309.1292694989648 -5.281670859168485e-13)
(185.0788994657105 -307.0788597397502 -5.349172750389823e-13)
(184.4234659043148 -306.2918551261424 -5.292228151141565e-13)
(185.3805379444871 -308.8752160264075 -5.282880863870437e-13)
(184.6281835933397 -306.9105453498564 -5.291160452126418e-13)
(185.551690720083 -309.7810017613862 -5.323735134876928e-13)
(185.5777684677491 -312.7650811934467 -5.688968051111935e-13)
(185.4163078134231 -311.2836618700554 -5.631488512061053e-13)
(184.0509771628961 -307.9806823398868 -6.962149931006813e-13)
(185.1153520002638 -312.3731716391216 -6.247599823724535e-13)
(179.4165199970488 -294.4507901624125 -7.208200881640882e-13)
(180.5897986169923 -299.2297001276019 -7.2615645803865e-13)
(177.7413683405809 -290.9827041267761 -6.428986841095386e-13)
(177.8163143757792 -291.1610184600925 -5.942517391448642e-13)
(179.216015005899 -295.4372781035327 -2.856955613829158e-13)
(177.8058283442615 -292.2229406427186 -4.25315761868696e-13)
(180.4376796750774 -297.3903739905398 -1.993412634897125e-13)
(182.3086632046625 -302.288439264825 -9.926504219883112e-14)
(182.6285083986266 -304.0405939412434 -2.922306531881131e-13)
(184.4251964081317 -304.4400769272174 -5.300527795191895e-13)
(183.6120970662619 -304.1105603759983 -4.170963407412988e-13)
(181.6305419674741 -300.3270036255831 -9.014713762359518e-14)
(178.8410967103718 -333.5232115375894 -5.159836960798192e-13)
(181.8479143416934 -315.4964487871066 -5.239640382968696e-13)
(183.9102119739318 -308.0557215834073 -5.375226659447702e-13)
(184.2894422079753 -306.9451482562727 -5.362969814716157e-13)
(184.0533862063205 -306.0122734622899 -5.291164821076469e-13)
(184.9125177339161 -307.8680396758726 -5.293261475213065e-13)
(184.9446011808371 -309.7833925176208 -5.403748369726056e-13)
(184.9217403129431 -310.4861729820353 -5.673425186681104e-13)
(183.4197143866444 -309.9579017367101 -6.973914610618434e-13)
(184.3328963145335 -311.3847065209902 -6.567874317743575e-13)
(177.4845776695132 -291.3381732618157 -7.064428258920617e-13)
(180.1606530834189 -301.7266878511547 -7.262307300613288e-13)
(177.2552321138227 -290.4163307351987 -6.454758014091498e-13)
(177.3013966652223 -290.9552319243387 -5.037907342666971e-13)
(179.1186476671197 -295.5439277344157 -2.61122186268614e-13)
(177.9091826274888 -292.6198594939245 -3.440775540578622e-13)
(181.6191774311548 -301.2826905726151 -1.009745825131743e-13)
(182.6923433298016 -303.4270948124417 -2.093381249849102e-13)
(185.0079741938486 -304.6077126720623 -5.137105113479023e-13)
(183.4957206711056 -303.4843015500138 -2.99626551906397e-13)
(179.8272352211592 -297.418235547349 -1.244247171183531e-13)
(180.9130729198337 -336.1794816687762 -5.176043852386488e-13)
(182.2676554176468 -313.2052677626955 -5.375975708748314e-13)
(182.4052892087187 -308.4202731952326 -5.360654649882944e-13)
(183.4258866075361 -305.6655251469998 -5.30521547469236e-13)
(183.57338173669 -306.4244339181366 -5.298034815071712e-13)
(184.40710792556 -307.8443831102517 -5.314771910231806e-13)
(184.2767135168342 -308.3476982601992 -5.410731257508158e-13)
(184.3959276534849 -310.0842189149687 -5.994764774819235e-13)
(182.2811122496111 -307.8983913294575 -7.256692841037835e-13)
(183.7859315855415 -310.9472066065306 -6.547672793662518e-13)
(176.6888834623944 -291.4557079757139 -6.87290546051657e-13)
(178.1800730266684 -298.2981698777199 -7.263596737015574e-13)
(176.3414508895729 -289.7140075759866 -5.390580128843571e-13)
(176.4714887915216 -289.6773176234728 -4.942885369665564e-13)
(177.217085634786 -291.3221444713498 -3.192884817710382e-13)
(182.2266811786955 -302.2623083818042 -1.053919026286362e-13)
(180.4757274551307 -298.6197922749662 -9.945544087908177e-14)
(184.9191895798878 -302.7944938532167 -3.654114185941858e-13)
(185.2074424503117 -304.9752364544485 -5.715225750869634e-13)
(183.7246449592539 -302.7243857700901 -2.726560427919373e-13)
(179.3589112922967 -296.6417504700498 -1.230250033000442e-13)
(181.2381344931471 -334.856398342155 -5.363352717113503e-13)
(180.5820930125854 -336.4760634697151 -4.959740026576046e-13)
(183.0951771807181 -319.1167633852635 -5.36057696675932e-13)
(181.8613962455933 -306.0966832419183 -5.305998680388877e-13)
(182.1537821390745 -305.285464757619 -5.284443410570166e-13)
(182.4770527875656 -305.4334012218025 -5.295051342435057e-13)
(183.6999858604308 -307.0249078158802 -5.320239181890065e-13)
(183.8045278692857 -308.1609421949254 -5.498644770203266e-13)
(183.3662983688372 -308.263121256534 -6.1290097366425e-13)
(181.5661928430293 -308.7909799983383 -7.261587353156281e-13)
(182.9387707783725 -309.9226733884252 -6.912462776442251e-13)
(176.9934986853574 -295.0217730330671 -6.959537886915923e-13)
(175.8868443173259 -289.6518033290405 -5.623169639491199e-13)
(177.9327976325957 -301.6973104173105 -7.268608449624658e-13)
(176.184512543052 -289.4179588353322 -4.464220861883049e-13)
(177.9326452214351 -292.9837154374387 -1.773302003142355e-13)
(181.9610557359919 -300.3142401070314 -1.032969557416806e-13)
(180.4371077762359 -297.7989455602774 -1.000942001010092e-13)
(185.0125955253467 -300.3564676824029 -3.379074569202023e-13)
(185.3845784853881 -300.8746892118147 -5.514449913447115e-13)
(182.9232205116751 -300.5728888298069 -1.161731025378895e-13)
(181.2266803532882 -336.7730562753153 -5.358582444979892e-13)
(181.1298707878511 -336.7977539249414 -5.327785651425387e-13)
(183.5811143444403 -312.9388668281523 -5.311011836992396e-13)
(183.1024364854641 -307.8757339719076 -5.298751386061145e-13)
(183.3739054552235 -306.2196357724263 -5.308783551004229e-13)
(183.6232564421562 -307.2664866452531 -5.378052750105491e-13)
(183.4967499001563 -308.0570079509945 -5.855830578758566e-13)
(182.6969750783658 -307.7525709532766 -6.718701133234647e-13)
(181.3800602384374 -308.5081588768151 -7.257037596838554e-13)
(176.3856510688711 -295.4683397305449 -6.541072303948576e-13)
(175.5273228938532 -289.2370957239283 -5.067933701360831e-13)
(177.9798615664733 -302.2307815204339 -7.270524864200046e-13)
(175.7414347053449 -288.901259865993 -4.121064198747229e-13)
(177.5221021368531 -291.584527575292 -1.839403478183726e-13)
(179.5128192729597 -294.8961610987521 -1.006793873929468e-13)
(184.9417753135947 -300.3611621853367 -2.254622085063316e-13)
(185.0883331050754 -300.4485156886992 -4.440255489498891e-13)
(185.3967788222535 -300.8089719808114 -5.800634194279413e-13)
(182.9046519404029 -297.9628764329335 -1.025168679321954e-13)
(181.6701694315873 -336.8592944975031 -5.376917517448115e-13)
(181.2239100029357 -336.9344758345784 -5.30394606113188e-13)
(182.8988015760834 -314.8994803607417 -5.303375747606227e-13)
(184.0007893454376 -306.8940971162073 -5.323972846217933e-13)
(183.4349411424032 -306.8000327166816 -5.453574402202654e-13)
(183.2342712194676 -307.3482849885233 -6.05531728027671e-13)
(182.832261736906 -307.7503723994923 -6.839883363358055e-13)
(181.1125794534322 -307.1111691678906 -7.287752699991089e-13)
(175.6295788094091 -292.7728964241924 -5.321417409194215e-13)
(176.8323489200612 -299.7501246171401 -6.807771922412026e-13)
(175.3931621551754 -288.654682562491 -4.993141679843484e-13)
(175.4942438807824 -290.0423107617609 -5.15357939950197e-13)
(178.206508735489 -302.6340027657628 -7.262726233239539e-13)
(176.0753359732143 -289.795129226831 -2.997094875100898e-13)
(179.7927267460719 -294.2472551087183 -9.963847361852429e-14)
(184.2446543687055 -299.904451924479 -1.30245021256442e-13)
(185.2273930158217 -301.0691343404466 -2.246955004202863e-13)
(185.3010111820773 -300.9877396870548 -3.97845096639775e-13)
(185.3465162689562 -301.1935011085331 -5.802322462184896e-13)
(181.6284306576235 -297.3468023825034 -6.835364208798214e-14)
(181.6677566039027 -337.4986586635483 -5.376372596467687e-13)
(181.8810095990382 -336.3029727240539 -5.302622887094302e-13)
(182.2662467422628 -331.5794303422006 -5.104021869206127e-13)
(183.8015937442435 -322.0268842722796 -5.318537622704389e-13)
(184.5862591673348 -308.4985928035273 -5.368015856862045e-13)
(184.4725907941014 -307.8582408152056 -5.385748959993837e-13)
(183.629869531616 -307.0253605625597 -5.765157583172026e-13)
(183.1381471585431 -307.1559239850556 -6.70800281954158e-13)
(181.7275426489521 -305.9429299834026 -7.212086437292755e-13)
(175.060247611071 -293.8875486660067 -4.845549299292591e-13)
(177.0645164274868 -299.7181006338224 -6.453003609639996e-13)
(175.3244476794271 -289.6624686622839 -4.913599105250256e-13)
(178.6755485058315 -302.1795554860861 -7.257769139466008e-13)
(176.313504582212 -290.4553237240759 -3.084508080400782e-13)
(177.4470346033234 -292.4912966730062 -2.056682402433678e-13)
(183.7536726608139 -301.6895202196769 -7.41732754919149e-14)
(184.925836368203 -304.8558011015206 -1.717953343247944e-13)
(185.3075345307458 -301.4562766063681 -4.300606530053748e-13)
(185.333904954896 -302.4344385788767 -5.668440057217226e-13)
(182.2889180361785 -299.4457769663499 -6.918513699590649e-14)
(182.4616111427645 -337.5827293243881 -5.383950852468009e-13)
(182.8824247124393 -336.2490991742682 -5.259256000340621e-13)