/*--------------------------------*- C++ -*----------------------------------*\
| =========                 |                                                 |
| \\      /  F ield         | OpenFOAM: The Open Source CFD Toolbox           |
|  \\    /   O peration     | Version:  v1912                                 |
|   \\  /    A nd           | Website:  www.openfoam.com                      |
|    \\/     M anipulation  |                                                 |
\*---------------------------------------------------------------------------*/
FoamFile
{
    version     2.0;
    format      ascii;
    class       volScalarField;
    location    "5000";
    object      kl;
}
// * * * * * * * * * * * * * * * * * * * * * * * * * * * * * * * * * * * * * //

dimensions      [0 2 -2 0 0 0 0];


internalField   nonuniform List<scalar> 
33419
(
0.000180249
0.000180887
0.00018153
0.000182178
0.000182832
0.000183491
0.000184157
0.000184828
0.000185505
0.000186188
0.000186877
0.000187573
0.000188275
0.000188984
0.0001897
0.000190422
0.000191151
0.000191888
0.000192632
0.000193383
0.000194142
0.000194909
0.000195683
0.000196465
0.000197256
0.000198054
0.000198861
0.000199677
0.000200502
0.000201336
0.000202179
0.000203031
0.000203893
0.000204764
0.000205646
0.000206537
0.000207439
0.000208351
0.000209273
0.000210207
0.000211151
0.000212107
0.000213074
0.000214053
0.000215043
0.000216045
0.00021706
0.000218087
0.000219126
0.000220178
0.000221243
0.000222321
0.000223413
0.000224519
0.000225638
0.000226771
0.000227919
0.000229081
0.000230258
0.00023145
0.000232657
0.000233879
0.000235117
0.000236371
0.000237641
0.000238928
0.000240232
0.000241552
0.00024289
0.000244244
0.000245617
0.000247007
0.000248416
0.000249842
0.000251288
0.000252753
0.000254237
0.000255741
0.000257265
0.000258809
0.000260373
0.000261958
0.000263563
0.00026519
0.000266838
0.000268508
0.000270199
0.000271912
0.000273648
0.000275405
0.000277185
0.000278987
0.000280813
0.000282659
0.00028453
0.000286421
0.000288338
0.000290274
0.000292237
0.000294218
0.000296227
0.000298254
0.000300308
0.000302379
0.000304476
0.000306591
0.000308727
0.000310881
0.000313054
0.000315244
0.00031745
0.00031967
0.000321904
0.000324151
0.000326405
0.000328667
0.000330932
0.000333195
0.000335463
0.00033772
0.000339971
0.000342199
0.000344407
0.000346597
0.000348745
0.000350852
0.000352895
0.000354912
0.000356806
0.000358644
0.000360387
0.000361968
0.000363464
0.000364734
0.00036589
0.000366755
0.000367387
0.000367708
0.000367744
0.000367535
0.000366889
0.000365678
0.000364065
0.000361921
0.000359215
0.000356018
0.000352198
0.000347794
0.000342865
0.000337363
0.000331285
0.000324899
0.000318614
0.000312838
0.000307628
0.000303237
0.000299334
0.000296262
0.000293977
0.000292286
0.000291172
0.000290588
0.000290345
0.000290358
0.000290294
0.000289878
0.000289154
0.000288113
0.000286597
0.000284623
0.000282279
0.000279598
0.000276576
0.000273335
0.000269957
0.000266452
0.000262922
0.000259383
0.000255832
0.000252343
0.000248904
0.000245532
0.000242245
0.000239034
0.000235917
0.00023289
0.000229954
0.000227103
0.000224338
0.000221656
0.000219056
0.000216535
0.00021409
0.000211718
0.000209415
0.000207179
0.000205005
0.00020289
0.00020083
0.000198821
0.000196858
0.000194932
0.000193035
0.000191161
0.000189313
0.000187494
0.000185711
0.000183972
0.000182282
0.000180642
0.000179055
0.000177518
0.000176031
0.000174593
0.000173204
0.000171858
0.000170556
0.000169294
0.000168071
0.000166885
0.000165734
0.000164618
0.000163535
0.000162482
0.00016146
0.000160466
0.000159501
0.00015856
0.000157644
0.000156749
0.000155877
0.000155025
0.000154195
0.000153382
0.00015259
0.000151815
0.000151058
0.000150317
0.000149594
0.000148884
0.000148191
0.000147509
0.000146842
0.000146186
0.000145543
0.000144911
0.000144292
0.000143682
0.000143086
0.000142497
0.000141922
0.000141354
0.000140798
0.00014025
0.000139713
0.000139182
0.000138662
0.000138145
0.00013764
0.000137139
0.000136649
0.000136161
0.000135685
0.000135211
0.000134749
0.000134289
0.00013384
0.000133392
0.000132956
0.000132521
0.000132097
0.000131669
0.000131252
0.000130833
0.000130425
0.000130016
0.000129617
0.000129217
0.000128827
0.000128437
0.000128056
0.000127675
0.000127304
0.000126931
0.000126569
0.000126205
0.000125852
0.000125497
0.000125151
0.000124805
0.000124467
0.000124129
0.000123798
0.000123468
0.000123144
0.00012282
0.000122502
0.000122185
0.000121873
0.000121563
0.000121257
0.000120954
0.000120655
0.000120359
0.000120066
0.000119775
0.000119489
0.000119205
0.000118923
0.000118647
0.000118364
0.000118105
0.000117803
0.000117583
0.000117232
0.000117088
0.000116644
0.00109569
0.00109957
0.00110348
0.00110742
0.0011114
0.00111541
0.00111945
0.00112353
0.00112764
0.0011318
0.00113599
0.00114022
0.00114449
0.0011488
0.00115314
0.00115754
0.00116197
0.00116645
0.00117097
0.00117553
0.00118015
0.00118481
0.00118951
0.00119427
0.00119907
0.00120393
0.00120884
0.0012138
0.00121881
0.00122388
0.001229
0.00123418
0.00123942
0.00124472
0.00125007
0.00125549
0.00126097
0.00126652
0.00127213
0.0012778
0.00128354
0.00128935
0.00129523
0.00130118
0.0013072
0.00131329
0.00131946
0.0013257
0.00133202
0.00133841
0.00134489
0.00135144
0.00135808
0.0013648
0.0013716
0.00137849
0.00138547
0.00139253
0.00139969
0.00140693
0.00141427
0.00142169
0.00142922
0.00143684
0.00144456
0.00145238
0.00146031
0.00146833
0.00147647
0.0014847
0.00149304
0.00150149
0.00151006
0.00151873
0.00152752
0.00153642
0.00154544
0.00155459
0.00156385
0.00157323
0.00158274
0.00159237
0.00160213
0.00161202
0.00162204
0.00163219
0.00164247
0.00165288
0.00166343
0.00167411
0.00168494
0.00169589
0.00170699
0.00171821
0.00172958
0.00174107
0.00175273
0.00176449
0.00177643
0.00178847
0.00180068
0.001813
0.00182548
0.00183808
0.00185082
0.00186368
0.00187666
0.00188976
0.00190296
0.00191627
0.00192968
0.00194318
0.00195676
0.00197042
0.00198412
0.00199787
0.00201163
0.00202539
0.00203917
0.00205289
0.00206658
0.00208012
0.00209354
0.00210685
0.00211991
0.00213272
0.00214513
0.00215739
0.00216891
0.00218008
0.00219068
0.00220029
0.00220938
0.0022171
0.00222413
0.00222939
0.00223324
0.0022352
0.00223542
0.00223415
0.00223024
0.00222289
0.0022131
0.00220009
0.00218366
0.00216426
0.00214107
0.00211434
0.00208444
0.00205105
0.00201417
0.0019754
0.00193721
0.00190208
0.00187036
0.00184363
0.00181986
0.00180111
0.00178716
0.00177684
0.00177
0.00176641
0.0017649
0.00176496
0.00176459
0.00176209
0.00175771
0.00175142
0.00174225
0.00173029
0.00171607
0.0016998
0.00168146
0.00166177
0.00164125
0.00161995
0.00159849
0.00157698
0.00155539
0.00153418
0.00151327
0.00149277
0.00147278
0.00145325
0.00143429
0.00141589
0.00139803
0.0013807
0.00136388
0.00134757
0.00133176
0.00131643
0.00130156
0.00128713
0.00127313
0.00125953
0.00124631
0.00123345
0.00122093
0.00120871
0.00119678
0.00118507
0.00117353
0.00116214
0.0011509
0.00113985
0.00112901
0.00111843
0.00110815
0.00109818
0.00108853
0.00107918
0.00107014
0.00106139
0.00105294
0.00104476
0.00103684
0.00102917
0.00102173
0.00101452
0.00100752
0.00100073
0.000994146
0.000987744
0.00098153
0.000975488
0.000969618
0.000963895
0.000958325
0.000952884
0.000947584
0.000942403
0.000937354
0.000932414
0.000927597
0.000922882
0.000918281
0.000913773
0.000909377
0.000905064
0.000900848
0.000896702
0.000892647
0.000888656
0.000884751
0.000880905
0.000877143
0.000873435
0.000869809
0.00086623
0.000862734
0.000859279
0.000855903
0.000852566
0.000849305
0.000846073
0.000842911
0.000839772
0.000836703
0.000833653
0.000830672
0.000827709
0.000824815
0.000821935
0.000819126
0.000816328
0.000813599
0.000810877
0.000808226
0.000805578
0.000802999
0.000800399
0.000797863
0.000795318
0.000792838
0.000790348
0.000787924
0.000785491
0.000783123
0.000780748
0.000778437
0.000776118
0.000773862
0.000771597
0.000769394
0.000767183
0.000765033
0.000762875
0.000760775
0.000758669
0.000756614
0.000754559
0.00075255
0.000750541
0.000748571
0.000746603
0.000744668
0.000742742
0.000740844
0.00073896
0.000737101
0.000735261
0.00073344
0.000731641
0.00072986
0.000728095
0.000726352
0.000724625
0.000722911
0.000721238
0.000719511
0.00071794
0.000716106
0.000714765
0.000712632
0.000711755
0.000709056
0.00239456
0.00240303
0.00241157
0.00242019
0.00242887
0.00243763
0.00244647
0.00245539
0.00246438
0.00247346
0.00248261
0.00249186
0.00250118
0.0025106
0.0025201
0.0025297
0.00253939
0.00254917
0.00255905
0.00256903
0.00257911
0.0025893
0.00259958
0.00260997
0.00262047
0.00263108
0.0026418
0.00265264
0.0026636
0.00267467
0.00268587
0.00269719
0.00270864
0.00272022
0.00273193
0.00274377
0.00275574
0.00276786
0.00278012
0.00279251
0.00280506
0.00281775
0.0028306
0.0028436
0.00285676
0.00287007
0.00288355
0.00289719
0.002911
0.00292497
0.00293912
0.00295344
0.00296795
0.00298263
0.0029975
0.00301255
0.0030278
0.00304324
0.00305887
0.0030747
0.00309074
0.00310697
0.00312342
0.00314007
0.00315695
0.00317403
0.00319136
0.00320889
0.00322666
0.00324465
0.00326289
0.00328136
0.00330007
0.00331902
0.00333823
0.00335769
0.0033774
0.00339738
0.00341762
0.00343813
0.00345891
0.00347996
0.00350129
0.0035229
0.00354479
0.00356697
0.00358943
0.00361219
0.00363524
0.00365858
0.00368224
0.00370616
0.00373042
0.00375494
0.0037798
0.00380492
0.00383038
0.0038561
0.00388217
0.00390849
0.00393518
0.0039621
0.00398938
0.00401689
0.00404475
0.00407283
0.00410122
0.00412983
0.00415869
0.00418778
0.00421708
0.00424658
0.00427625
0.0043061
0.00433603
0.00436608
0.00439616
0.00442622
0.00445635
0.00448633
0.00451623
0.00454582
0.00457515
0.00460424
0.00463277
0.00466076
0.00468789
0.00471468
0.00473984
0.00476425
0.00478743
0.00480842
0.0048283
0.00484517
0.00486053
0.00487203
0.00488045
0.00488474
0.00488523
0.00488247
0.00487395
0.0048579
0.00483658
0.00480816
0.00477232
0.00472999
0.00467937
0.00462104
0.00455582
0.00448297
0.00440252
0.00431789
0.00423448
0.00415763
0.00408821
0.00402971
0.00397765
0.00393651
0.00390589
0.00388325
0.00386817
0.00386023
0.00385684
0.00385694
0.00385617
0.00385078
0.00384125
0.00382757
0.00380764
0.00378158
0.00375058
0.0037151
0.00367507
0.00363208
0.00358726
0.00354072
0.00349383
0.00344682
0.00339964
0.00335326
0.00330757
0.00326273
0.00321904
0.00317635
0.0031349
0.00309466
0.00305563
0.00301772
0.00298097
0.00294531
0.00291074
0.00287722
0.00284471
0.00281317
0.00278256
0.00275283
0.00272394
0.00269582
0.00266844
0.00264174
0.00261565
0.00259005
0.00256484
0.00253995
0.00251539
0.00249122
0.00246753
0.00244441
0.00242194
0.00240014
0.00237903
0.00235859
0.00233883
0.00231971
0.00230124
0.00228335
0.00226604
0.00224926
0.002233
0.00221723
0.00220194
0.00218709
0.00217269
0.0021587
0.00214511
0.00213191
0.00211907
0.00210656
0.00209439
0.00208249
0.00207091
0.00205958
0.00204854
0.00203775
0.00202722
0.00201691
0.00200685
0.001997
0.00198739
0.00197796
0.00196875
0.00195969
0.00195082
0.0019421
0.00193356
0.00192516
0.00191693
0.00190883
0.0019009
0.00189308
0.00188544
0.00187789
0.00187051
0.00186321
0.00185609
0.00184902
0.00184211
0.00183525
0.00182854
0.00182188
0.00181536
0.00180889
0.00180256
0.00179627
0.00179013
0.00178401
0.00177805
0.0017721
0.0017663
0.00176052
0.00175488
0.0017492
0.00174365
0.00173809
0.00173267
0.00172723
0.00172193
0.00171661
0.00171144
0.00170625
0.0017012
0.00169613
0.0016912
0.00168625
0.00168143
0.0016766
0.0016719
0.00166719
0.0016626
0.00165799
0.0016535
0.00164901
0.00164462
0.00164023
0.00163592
0.00163162
0.00162739
0.00162318
0.00161904
0.00161492
0.00161086
0.00160684
0.00160286
0.00159892
0.00159503
0.00159117
0.00158736
0.00158359
0.00157984
0.00157619
0.00157241
0.00156898
0.00156497
0.00156204
0.00155738
0.00155546
0.00154956
0.00400949
0.00402368
0.00403798
0.0040524
0.00406694
0.00408161
0.0040964
0.00411133
0.00412639
0.00414159
0.00415692
0.00417239
0.00418801
0.00420377
0.00421968
0.00423575
0.00425197
0.00426835
0.00428489
0.0043016
0.00431848
0.00433553
0.00435274
0.00437015
0.00438772
0.00440549
0.00442344
0.00444159
0.00445993
0.00447847
0.00449722
0.00451618
0.00453534
0.00455473
0.00457433
0.00459416
0.00461421
0.00463449
0.00465501
0.00467577
0.00469677
0.00471803
0.00473954
0.0047613
0.00478333
0.00480562
0.00482819
0.00485102
0.00487414
0.00489754
0.00492123
0.00494521
0.00496949
0.00499407
0.00501897
0.00504418
0.00506971
0.00509555
0.00512173
0.00514823
0.00517508
0.00520226
0.0052298
0.00525768
0.00528594
0.00531454
0.00534354
0.0053729
0.00540266
0.00543278
0.00546331
0.00549423
0.00552556
0.0055573
0.00558945
0.00562203
0.00565504
0.00568849
0.00572237
0.00575671
0.0057915
0.00582675
0.00586246
0.00589864
0.0059353
0.00597243
0.00601004
0.00604813
0.00608674
0.00612581
0.00616542
0.00620548
0.00624609
0.00628714
0.00632877
0.00637081
0.00641346
0.0064565
0.00650017
0.00654422
0.0065889
0.00663397
0.00667965
0.00672572
0.00677236
0.00681938
0.0068669
0.0069148
0.00696313
0.00701182
0.00706088
0.00711026
0.00715994
0.00720991
0.00726003
0.00731033
0.0073607
0.00741103
0.00746146
0.00751165
0.00756171
0.00761126
0.00766036
0.00770906
0.00775683
0.00780369
0.00784911
0.00789396
0.00793609
0.00797694
0.00801576
0.00805089
0.00808419
0.00811243
0.00813816
0.00815743
0.00817153
0.00817874
0.00817957
0.00817498
0.00816075
0.00813393
0.00809832
0.00805082
0.0079909
0.00792018
0.00783555
0.00773807
0.00762913
0.00750743
0.00737301
0.00723154
0.00709196
0.00696312
0.00684666
0.0067485
0.00666108
0.00659183
0.00654024
0.00650211
0.00647655
0.00646304
0.00645716
0.00645723
0.00645601
0.00644713
0.00643126
0.00640851
0.00637534
0.00633189
0.00628012
0.00622086
0.00615397
0.00608205
0.00600707
0.00592919
0.00585066
0.00577198
0.00569296
0.00561529
0.00553877
0.00546366
0.00539047
0.00531896
0.00524954
0.00518212
0.00511673
0.00505324
0.00499167
0.00493194
0.00487403
0.00481788
0.00476343
0.0047106
0.00465932
0.00460952
0.00456113
0.00451404
0.00446818
0.00442346
0.00437976
0.00433691
0.0042947
0.00425302
0.00421189
0.00417142
0.00413174
0.00409302
0.00405539
0.00401887
0.00398352
0.00394928
0.00391617
0.00388415
0.0038532
0.00382324
0.00379424
0.00376614
0.0037389
0.00371249
0.00368687
0.00366201
0.00363789
0.00361445
0.00359169
0.00356957
0.00354808
0.00352713
0.00350673
0.00348681
0.00346741
0.00344844
0.00342996
0.00341187
0.00339424
0.00337698
0.00336014
0.00334364
0.00332754
0.00331175
0.00329632
0.00328115
0.00326631
0.0032517
0.0032374
0.00322333
0.00320956
0.00319598
0.00318271
0.00316962
0.00315682
0.00314417
0.00313181
0.0031196
0.00310767
0.00309584
0.00308427
0.00307278
0.00306155
0.00305039
0.00303948
0.00302863
0.00301804
0.0030075
0.00299722
0.00298698
0.00297699
0.00296703
0.00295733
0.00294764
0.0029382
0.00292869
0.00291941
0.00291009
0.00290102
0.00289191
0.00288304
0.00287413
0.00286547
0.00285678
0.00284832
0.00283983
0.00283158
0.00282329
0.00281523
0.00280714
0.00279927
0.00279137
0.00278369
0.00277598
0.00276846
0.00276094
0.00275359
0.00274624
0.00273903
0.00273183
0.00272475
0.0027177
0.00271075
0.00270386
0.00269706
0.00269033
0.00268366
0.00267708
0.00267056
0.0026641
0.00265772
0.00265141
0.00264513
0.00263901
0.00263269
0.00262694
0.00262023
0.00261532
0.00260752
0.00260431
0.00259444
0.00592721
0.00594818
0.00596931
0.00599063
0.00601212
0.0060338
0.00605566
0.00607772
0.00609998
0.00612244
0.0061451
0.00616797
0.00619105
0.00621436
0.00623787
0.00626162
0.00628559
0.0063098
0.00633425
0.00635895
0.00638389
0.00640909
0.00643454
0.00646026
0.00648624
0.00651251
0.00653903
0.00656586
0.00659296
0.00662037
0.00664808
0.0066761
0.00670443
0.00673308
0.00676206
0.00679136
0.006821
0.00685099
0.00688131
0.006912
0.00694304
0.00697446
0.00700625
0.00703842
0.00707098
0.00710393
0.00713728
0.00717103
0.00720521
0.00723979
0.00727481
0.00731025
0.00734615
0.00738248
0.00741928
0.00745653
0.00749427
0.00753247
0.00757117
0.00761034
0.00765003
0.00769019
0.0077309
0.00777211
0.00781388
0.00785617
0.00789903
0.00794243
0.00798641
0.00803093
0.00807606
0.00812176
0.00816808
0.00821498
0.00826252
0.00831067
0.00835946
0.0084089
0.00845899
0.00850974
0.00856116
0.00861327
0.00866605
0.00871953
0.00877371
0.00882859
0.00888419
0.00894049
0.00899755
0.0090553
0.00911385
0.00917306
0.0092331
0.00929377
0.0093553
0.00941744
0.00948048
0.00954409
0.00960864
0.00967375
0.0097398
0.00980641
0.00987394
0.00994202
0.010011
0.0100805
0.0101507
0.0102215
0.0102929
0.0103649
0.0104374
0.0105104
0.0105838
0.0106577
0.0107318
0.0108061
0.0108805
0.0109549
0.0110295
0.0111036
0.0111776
0.0112509
0.0113234
0.0113954
0.011466
0.0115353
0.0116024
0.0116687
0.011731
0.0117913
0.0118487
0.0119006
0.0119498
0.0119916
0.0120296
0.0120581
0.012079
0.0120897
0.0120909
0.0120842
0.0120632
0.0120236
0.0119712
0.0119011
0.0118127
0.0117084
0.0115835
0.0114397
0.0112792
0.0110997
0.0109016
0.0106928
0.0104866
0.0102958
0.0101232
0.00997766
0.00984791
0.00974483
0.00966792
0.0096111
0.00957263
0.00955219
0.00954306
0.00954291
0.00954118
0.00952824
0.00950489
0.0094715
0.00942281
0.00935887
0.00928259
0.00919525
0.0090966
0.00899039
0.00887967
0.0087646
0.00864852
0.00853224
0.00841543
0.00830056
0.00818743
0.00807635
0.00796813
0.00786237
0.00775969
0.00765999
0.00756329
0.00746939
0.00737833
0.00729
0.00720437
0.00712134
0.00704082
0.0069627
0.00688688
0.00681324
0.00674169
0.00667207
0.00660426
0.00653815
0.00647356
0.00641022
0.00634784
0.00628624
0.00622546
0.00616564
0.00610699
0.00604974
0.00599411
0.00594011
0.00588784
0.00583721
0.00578825
0.00574091
0.00569515
0.00565085
0.00560797
0.00556642
0.00552615
0.00548709
0.00544922
0.00541246
0.0053768
0.00534214
0.00530851
0.0052758
0.00524403
0.00521305
0.0051829
0.00515346
0.00512478
0.00509674
0.00506941
0.00504268
0.00501661
0.0049911
0.0049662
0.00494181
0.00491802
0.00489468
0.00487187
0.00484944
0.00482751
0.00480591
0.00478479
0.00476398
0.00474363
0.00472357
0.00470395
0.00468459
0.00466568
0.00464699
0.00462872
0.00461067
0.00459304
0.00457556
0.00455845
0.00454148
0.00452487
0.00450838
0.00449225
0.00447623
0.00446057
0.004445
0.0044298
0.00441467
0.00439991
0.00438519
0.00437085
0.00435653
0.00434258
0.00432852
0.00431481
0.00430104
0.00428763
0.00427417
0.00426106
0.0042479
0.00423509
0.00422225
0.00420975
0.00419721
0.00418501
0.00417276
0.00416085
0.00414889
0.00413726
0.00412559
0.00411423
0.00410285
0.00409173
0.00408062
0.00406975
0.00405889
0.00404824
0.00403759
0.00402713
0.00401672
0.00400645
0.00399626
0.00398621
0.00397626
0.00396642
0.00395669
0.00394705
0.00393751
0.00392808
0.00391875
0.00390948
0.00390043
0.00389109
0.0038826
0.00387268
0.00386542
0.00385389
0.00384915
0.00383456
0.00815089
0.00817972
0.00820877
0.00823808
0.00826762
0.00829743
0.00832748
0.00835782
0.00838841
0.00841929
0.00845044
0.00848189
0.00851362
0.00854566
0.00857799
0.00861064
0.00864359
0.00867688
0.00871049
0.00874445
0.00877874
0.00881339
0.00884838
0.00888374
0.00891946
0.00895557
0.00899204
0.00902892
0.00906618
0.00910387
0.00914196
0.00918049
0.00921944
0.00925883
0.00929866
0.00933896
0.00937971
0.00942093
0.00946263
0.00950481
0.0095475
0.00959069
0.0096344
0.00967863
0.0097234
0.0097687
0.00981456
0.00986097
0.00990795
0.0099555
0.0100036
0.0100524
0.0101017
0.0101517
0.0102023
0.0102535
0.0103054
0.0103579
0.0104111
0.010465
0.0105195
0.0105748
0.0106307
0.0106874
0.0107448
0.010803
0.0108619
0.0109216
0.010982
0.0110433
0.0111053
0.0111681
0.0112318
0.0112963
0.0113617
0.0114279
0.011495
0.0115629
0.0116318
0.0117016
0.0117723
0.0118439
0.0119165
0.01199
0.0120645
0.01214
0.0122164
0.0122938
0.0123723
0.0124517
0.0125322
0.0126136
0.0126961
0.0127795
0.0128642
0.0129496
0.0130363
0.0131237
0.0132125
0.013302
0.0133928
0.0134844
0.0135772
0.0136708
0.0137656
0.0138611
0.0139577
0.014055
0.0141533
0.0142522
0.0143519
0.0144522
0.0145532
0.0146547
0.0147566
0.0148588
0.0149611
0.0150634
0.0151659
0.0152678
0.0153696
0.0154702
0.01557
0.0156689
0.015766
0.0158612
0.0159535
0.0160446
0.0161302
0.0162131
0.0162921
0.0163634
0.0164311
0.0164885
0.0165407
0.0165799
0.0166086
0.0166234
0.0166251
0.0166158
0.0165871
0.0165328
0.0164609
0.0163647
0.0162434
0.0161004
0.015929
0.0157318
0.0155118
0.0152657
0.014994
0.0147076
0.0144242
0.0141611
0.0139228
0.0137219
0.0135425
0.0133994
0.0132924
0.0132133
0.0131591
0.01313
0.0131165
0.0131157
0.0131132
0.0130955
0.0130634
0.0130177
0.0129512
0.0128636
0.012759
0.0126393
0.012504
0.012358
0.012206
0.0120478
0.0118882
0.0117283
0.0115677
0.0114097
0.0112541
0.0111013
0.0109525
0.010807
0.0106658
0.0105286
0.0103956
0.0102665
0.0101412
0.0100198
0.009902
0.00978781
0.00967709
0.00956967
0.00946541
0.00936418
0.0092658
0.00917009
0.00907688
0.00898601
0.00889724
0.0088102
0.00872449
0.00863987
0.00855635
0.00847416
0.00839355
0.00831486
0.00823838
0.00816416
0.0080923
0.0080227
0.00795539
0.00789031
0.00782739
0.0077665
0.00770755
0.00765043
0.00759507
0.00754139
0.00748933
0.0074388
0.00738978
0.00734214
0.00729591
0.00725095
0.00720728
0.00716471
0.00712327
0.00708281
0.00704339
0.00700485
0.0069673
0.00693056
0.00689474
0.00685968
0.00682546
0.00679194
0.00675925
0.00672718
0.00669584
0.00666502
0.00663487
0.0066052
0.00657617
0.00654758
0.00651962
0.00649205
0.0064651
0.0064385
0.00641252
0.00638684
0.00636174
0.00633694
0.0063127
0.00628869
0.00626519
0.00624186
0.00621905
0.00619639
0.00617424
0.00615222
0.00613071
0.00610931
0.00608844
0.00606764
0.00604737
0.00602714
0.00600744
0.00598776
0.0059686
0.00594928
0.00593044
0.00591153
0.0058931
0.00587461
0.0058566
0.00583852
0.00582092
0.00580328
0.00578611
0.00576887
0.00575211
0.00573528
0.00571892
0.00570249
0.00568652
0.00567048
0.00565488
0.00563923
0.00562396
0.00560869
0.00559376
0.00557884
0.0055642
0.00554958
0.00553521
0.0055209
0.00550679
0.0054928
0.00547899
0.00546532
0.00545179
0.00543842
0.00542519
0.00541208
0.00539913
0.0053863
0.00537356
0.00536113
0.00534831
0.00533663
0.00532301
0.00531304
0.0052972
0.00529067
0.00527063
0.010692
0.0107298
0.0107679
0.0108063
0.0108451
0.0108842
0.0109236
0.0109633
0.0110035
0.011044
0.0110848
0.0111261
0.0111677
0.0112097
0.0112521
0.0112949
0.0113381
0.0113818
0.0114258
0.0114704
0.0115153
0.0115608
0.0116066
0.011653
0.0116999
0.0117472
0.011795
0.0118434
0.0118923
0.0119417
0.0119916
0.0120422
0.0120932
0.0121449
0.0121971
0.01225
0.0123034
0.0123575
0.0124122
0.0124675
0.0125235
0.0125801
0.0126374
0.0126954
0.0127542
0.0128136
0.0128737
0.0129346
0.0129962
0.0130585
0.0131217
0.0131856
0.0132503
0.0133158
0.0133822
0.0134494
0.0135174
0.0135863
0.0136561
0.0137267
0.0137983
0.0138707
0.0139441
0.0140184
0.0140937
0.01417
0.0142472
0.0143255
0.0144048
0.0144851
0.0145665
0.0146489
0.0147324
0.014817
0.0149027
0.0149895
0.0150775
0.0151666
0.0152569
0.0153484
0.0154412
0.0155351
0.0156303
0.0157267
0.0158244
0.0159234
0.0160236
0.0161251
0.016228
0.0163321
0.0164377
0.0165445
0.0166528
0.0167621
0.0168731
0.0169851
0.0170988
0.0172135
0.0173299
0.0174472
0.0175664
0.0176864
0.0178082
0.0179309
0.0180553
0.0181805
0.0183072
0.0184348
0.0185636
0.0186933
0.0188241
0.0189556
0.019088
0.0192212
0.0193547
0.0194887
0.0196229
0.019757
0.0198914
0.0200251
0.0201585
0.0202905
0.0204213
0.020551
0.0206783
0.0208031
0.0209241
0.0210435
0.0211558
0.0212645
0.021368
0.0214614
0.0215502
0.0216254
0.0216939
0.0217453
0.0217829
0.0218022
0.0218045
0.0217924
0.0217548
0.0216836
0.0215898
0.0214636
0.0213049
0.0211178
0.0208935
0.0206355
0.0203479
0.0200261
0.0196708
0.0192958
0.0189241
0.0185778
0.0182636
0.0179983
0.0177613
0.0175711
0.0174285
0.0173229
0.0172493
0.0172091
0.0171895
0.0171868
0.0171828
0.0171593
0.0171167
0.0170567
0.0169698
0.0168552
0.0167182
0.0165614
0.0163843
0.0161929
0.0159936
0.0157862
0.0155768
0.0153672
0.0151565
0.0149491
0.0147451
0.0145447
0.0143494
0.0141586
0.0139733
0.0137935
0.0136191
0.0134497
0.0132855
0.0131262
0.0129719
0.0128222
0.0126771
0.0125363
0.0123996
0.012267
0.0121381
0.0120127
0.0118906
0.0117716
0.0116553
0.0115413
0.0114291
0.0113184
0.011209
0.0111014
0.0109959
0.0108928
0.0107926
0.0106954
0.0106013
0.0105101
0.010422
0.0103367
0.0102543
0.0101745
0.0100973
0.0100225
0.00995
0.00987969
0.00981151
0.00974533
0.00968114
0.00961875
0.0095582
0.00949933
0.00944214
0.0093864
0.00933214
0.00927915
0.00922754
0.00917708
0.00912791
0.00907981
0.00903291
0.00898701
0.00894221
0.00889833
0.00885553
0.00881354
0.00877251
0.00873217
0.0086927
0.00865386
0.00861586
0.00857843
0.00854183
0.00850574
0.00847046
0.00843565
0.00840163
0.00836801
0.00833516
0.0083027
0.00827098
0.00823954
0.00820878
0.00817825
0.00814839
0.00811873
0.00808973
0.00806091
0.00803276
0.00800475
0.00797743
0.00795021
0.00792367
0.0078972
0.00787141
0.00784565
0.00782057
0.00779529
0.00777063
0.00774588
0.00772176
0.00769755
0.00767397
0.00765031
0.00762728
0.00760418
0.00758171
0.00755915
0.00753721
0.00751518
0.00749376
0.00747225
0.00745135
0.00743036
0.00740993
0.00738945
0.00736946
0.00734947
0.00732993
0.0073104
0.00729124
0.0072721
0.00725329
0.00723455
0.00721609
0.00719777
0.00717969
0.0071618
0.00714409
0.00712659
0.00710927
0.0070921
0.00707515
0.00705836
0.00704169
0.00702541
0.00700863
0.00699334
0.00697551
0.00696245
0.00694172
0.00693317
0.00690696
0.0135673
0.0136153
0.0136636
0.0137124
0.0137615
0.0138111
0.0138611
0.0139115
0.0139624
0.0140138
0.0140656
0.0141179
0.0141707
0.014224
0.0142778
0.0143321
0.0143869
0.0144423
0.0144982
0.0145547
0.0146117
0.0146694
0.0147276
0.0147864
0.0148458
0.0149059
0.0149666
0.0150279
0.0150899
0.0151526
0.015216
0.01528
0.0153448
0.0154104
0.0154766
0.0155437
0.0156115
0.01568
0.0157494
0.0158196
0.0158906
0.0159625
0.0160352
0.0161088
0.0161832
0.0162586
0.0163349
0.0164121
0.0164903
0.0165694
0.0166495
0.0167305
0.0168126
0.0168957
0.0169799
0.0170651
0.0171515
0.0172388
0.0173274
0.0174169
0.0175077
0.0175996
0.0176927
0.017787
0.0178825
0.0179793
0.0180773
0.0181766
0.0182772
0.018379
0.0184822
0.0185868
0.0186927
0.0188
0.0189087
0.0190189
0.0191305
0.0192436
0.0193582
0.0194742
0.0195919
0.019711
0.0198318
0.0199541
0.0200781
0.0202035
0.0203308
0.0204595
0.0205901
0.0207221
0.0208561
0.0209914
0.0211288
0.0212675
0.0214083
0.0215504
0.0216946
0.0218401
0.0219878
0.0221366
0.0222877
0.02244
0.0225945
0.0227501
0.0229079
0.0230667
0.0232274
0.0233893
0.0235527
0.0237172
0.0238831
0.0240499
0.0242179
0.0243867
0.0245561
0.024726
0.0248963
0.0250663
0.0252368
0.0254063
0.0255755
0.0257428
0.0259087
0.0260732
0.0262346
0.0263928
0.0265463
0.0266976
0.0268401
0.0269777
0.0271091
0.0272274
0.02734
0.0274353
0.027522
0.0275872
0.0276348
0.0276593
0.0276621
0.0276466
0.0275989
0.0275087
0.02739
0.0272301
0.0270291
0.0267923
0.0265081
0.0261816
0.0258178
0.0254105
0.0249609
0.0244858
0.024014
0.023572
0.0231706
0.022831
0.022527
0.0222814
0.0220963
0.021959
0.0218651
0.0218129
0.0217859
0.0217801
0.021773
0.0217407
0.0216842
0.0216058
0.0214936
0.0213463
0.0211706
0.0209702
0.0207443
0.0205013
0.0202483
0.0199851
0.0197192
0.0194533
0.0191859
0.0189227
0.018664
0.0184096
0.018162
0.0179201
0.0176851
0.0174571
0.017236
0.0170214
0.0168133
0.0166115
0.016416
0.0162264
0.0160426
0.0158643
0.0156914
0.0155234
0.0153603
0.0152016
0.0150471
0.0148966
0.0147496
0.0146055
0.0144637
0.0143237
0.0141855
0.0140495
0.013916
0.0137857
0.0136591
0.0135361
0.0134171
0.0133018
0.0131903
0.0130825
0.0129783
0.0128774
0.0127798
0.0126852
0.0125935
0.0125046
0.0124184
0.0123347
0.0122536
0.0121747
0.0120982
0.0120237
0.0119515
0.011881
0.0118124
0.0117454
0.0116802
0.0116164
0.0115543
0.0114935
0.0114342
0.0113762
0.0113196
0.0112642
0.0112101
0.011157
0.0111052
0.0110542
0.0110043
0.0109552
0.0109072
0.0108599
0.0108137
0.0107681
0.0107235
0.0106795
0.0106365
0.0105941
0.0105526
0.0105116
0.0104715
0.0104318
0.0103929
0.0103543
0.0103166
0.0102791
0.0102425
0.0102061
0.0101705
0.0101351
0.0101006
0.0100662
0.0100327
0.00999924
0.00996667
0.00993412
0.00990244
0.0098705
0.00983934
0.00980807
0.00977759
0.00974701
0.00971721
0.00968732
0.00965822
0.00962903
0.00960064
0.00957213
0.00954441
0.00951657
0.00948951
0.00946233
0.00943592
0.0094094
0.00938359
0.0093577
0.00933245
0.00930719
0.0092825
0.00925782
0.0092336
0.00920942
0.00918565
0.00916197
0.00913865
0.0091155
0.00909264
0.00907004
0.00904766
0.00902554
0.00900365
0.00898196
0.00896054
0.00893931
0.00891825
0.00889767
0.00887646
0.00885714
0.00883461
0.0088181
0.00879191
0.00878108
0.00874799
0.0167976
0.016857
0.0169168
0.0169772
0.017038
0.0170994
0.0171613
0.0172237
0.0172867
0.0173503
0.0174144
0.0174792
0.0175445
0.0176105
0.017677
0.0177443
0.0178121
0.0178807
0.0179499
0.0180198
0.0180904
0.0181617
0.0182338
0.0183066
0.0183802
0.0184545
0.0185296
0.0186055
0.0186823
0.0187599
0.0188383
0.0189176
0.0189978
0.0190789
0.019161
0.0192439
0.0193278
0.0194127
0.0194986
0.0195854
0.0196733
0.0197623
0.0198523
0.0199434
0.0200355
0.0201288
0.0202233
0.0203188
0.0204156
0.0205135
0.0206126
0.0207129
0.0208146
0.0209174
0.0210216
0.0211271
0.021234
0.0213421
0.0214516
0.0215625
0.0216749
0.0217886
0.0219039
0.0220206
0.0221388
0.0222585
0.0223799
0.0225027
0.0226273
0.0227533
0.0228811
0.0230105
0.0231416
0.0232744
0.023409
0.0235453
0.0236834
0.0238234
0.0239652
0.0241089
0.0242545
0.0244019
0.0245514
0.0247028
0.0248562
0.0250115
0.025169
0.0253283
0.0254899
0.0256533
0.0258191
0.0259866
0.0261567
0.0263283
0.0265026
0.0266784
0.0268569
0.0270369
0.0272197
0.0274039
0.027591
0.0277794
0.0279706
0.0281632
0.0283584
0.028555
0.0287539
0.0289541
0.0291563
0.0293599
0.0295652
0.0297716
0.0299795
0.0301883
0.030398
0.0306082
0.0308189
0.0310292
0.0312402
0.0314499
0.0316592
0.0318662
0.0320715
0.0322749
0.0324746
0.0326702
0.0328601
0.0330472
0.0332234
0.0333935
0.033556
0.0337021
0.0338414
0.033959
0.0340662
0.0341466
0.0342053
0.0342354
0.0342387
0.0342192
0.03416
0.0340481
0.0339017
0.0337036
0.033455
0.0331623
0.0328108
0.0324073
0.0319581
0.0314546
0.0308991
0.0303112
0.0297259
0.0291743
0.0286727
0.0282467
0.0278732
0.027572
0.0273437
0.0271736
0.0270578
0.026992
0.0269555
0.026944
0.0269305
0.0268853
0.0268097
0.0267073
0.0265633
0.026376
0.0261538
0.0259014
0.0256182
0.0253147
0.0249993
0.0246716
0.0243405
0.0240098
0.0236774
0.0233503