/*--------------------------------*- C++ -*----------------------------------*\
| =========                 |                                                 |
| \\      /  F ield         | OpenFOAM: The Open Source CFD Toolbox           |
|  \\    /   O peration     | Version:  v1912                                 |
|   \\  /    A nd           | Website:  www.openfoam.com                      |
|    \\/     M anipulation  |                                                 |
\*---------------------------------------------------------------------------*/
FoamFile
{
    version     2.0;
    format      ascii;
    class       volScalarField;
    location    "5000";
    object      kt;
}
// * * * * * * * * * * * * * * * * * * * * * * * * * * * * * * * * * * * * * //

dimensions      [0 2 -2 0 0 0 0];


internalField   nonuniform List<scalar> 
33419
(
2.18393e-05
2.16751e-05
2.15133e-05
2.13539e-05
2.11968e-05
2.1042e-05
2.08895e-05
2.07394e-05
2.05916e-05
2.04461e-05
2.03029e-05
2.0162e-05
2.00233e-05
1.98869e-05
1.97527e-05
1.96208e-05
1.94912e-05
1.93638e-05
1.92386e-05
1.91157e-05
1.89951e-05
1.88767e-05
1.87605e-05
1.86466e-05
1.8535e-05
1.84256e-05
1.83184e-05
1.82136e-05
1.8111e-05
1.80106e-05
1.79126e-05
1.78168e-05
1.77234e-05
1.76322e-05
1.75434e-05
1.74568e-05
1.73726e-05
1.72906e-05
1.7211e-05
1.71338e-05
1.70589e-05
1.69864e-05
1.69162e-05
1.68485e-05
1.67832e-05
1.67202e-05
1.66598e-05
1.66017e-05
1.65462e-05
1.64931e-05
1.64426e-05
1.63946e-05
1.63493e-05
1.63065e-05
1.62664e-05
1.62289e-05
1.61942e-05
1.61622e-05
1.61331e-05
1.61067e-05
1.60833e-05
1.60628e-05
1.60454e-05
1.60309e-05
1.60198e-05
1.60116e-05
1.60072e-05
1.60068e-05
1.60081e-05
1.60123e-05
1.60217e-05
1.60344e-05
1.60515e-05
1.60718e-05
1.6097e-05
1.61255e-05
1.61592e-05
1.61965e-05
1.62394e-05
1.62861e-05
1.63389e-05
1.63956e-05
1.64591e-05
1.65265e-05
1.66015e-05
1.66806e-05
1.67679e-05
1.68597e-05
1.69606e-05
1.70658e-05
1.71817e-05
1.73014e-05
1.74336e-05
1.75691e-05
1.77196e-05
1.78733e-05
1.80451e-05
1.82196e-05
1.84159e-05
1.8614e-05
1.88377e-05
1.90624e-05
1.93166e-05
1.95713e-05
1.9859e-05
2.01461e-05
2.04719e-05
2.07986e-05
2.11701e-05
2.15458e-05
2.19694e-05
2.24032e-05
2.28861e-05
2.33809e-05
2.39331e-05
2.45088e-05
2.51455e-05
2.58229e-05
2.65554e-05
2.73414e-05
2.81956e-05
2.91252e-05
3.01377e-05
3.12247e-05
3.24182e-05
3.37271e-05
3.51593e-05
3.67114e-05
3.84434e-05
4.03535e-05
4.24077e-05
4.47888e-05
4.73082e-05
5.0242e-05
5.34051e-05
5.70461e-05
6.10639e-05
6.56665e-05
7.08131e-05
7.67375e-05
8.34299e-05
9.11902e-05
0.000100114
0.000110536
0.000122784
0.000137251
0.00015469
0.000175946
0.000202289
0.000235838
0.000279402
0.000335406
0.000404812
0.000486687
0.000579055
0.000679142
0.000784131
0.00088927
0.000990363
0.00108566
0.00117243
0.00124857
0.00131339
0.00136444
0.00140052
0.00142603
0.00144443
0.00145584
0.00146063
0.00146074
0.00145843
0.00145387
0.00144804
0.00144162
0.00143462
0.00142719
0.00141962
0.00141193
0.00140405
0.00139614
0.00138817
0.00138018
0.00137214
0.0013641
0.00135611
0.00134813
0.0013402
0.00133228
0.00132442
0.0013166
0.00130883
0.0013011
0.00129341
0.00128576
0.00127815
0.00127056
0.00126297
0.00125539
0.00124781
0.00124022
0.00123252
0.00122465
0.00121668
0.00120873
0.00120093
0.00119331
0.00118591
0.00117872
0.00117173
0.00116491
0.00115827
0.00115179
0.00114548
0.00113932
0.00113328
0.00112737
0.00112157
0.00111589
0.00111033
0.00110487
0.00109953
0.00109429
0.00108915
0.00108411
0.00107918
0.00107432
0.00106955
0.00106484
0.00106021
0.00105565
0.00105116
0.00104675
0.0010424
0.00103812
0.00103392
0.00102977
0.00102569
0.00102167
0.00101771
0.00101379
0.00100993
0.00100611
0.00100234
0.000998611
0.000994943
0.000991308
0.000987737
0.000984195
0.000980715
0.000977262
0.000973872
0.000970501
0.000967199
0.000963914
0.000960685
0.000957462
0.000954296
0.000951137
0.00094804
0.00094495
0.000941923
0.0009389
0.000935942
0.000932984
0.000930092
0.000927199
0.000924372
0.000921542
0.000918776
0.000916005
0.000913307
0.000910598
0.000907953
0.00090529
0.000902692
0.000900076
0.000897529
0.000894964
0.000892466
0.000889951
0.000887506
0.000885043
0.000882647
0.000880232
0.000877885
0.000875517
0.000873216
0.000870897
0.000868643
0.000866371
0.00086416
0.000861938
0.000859764
0.000857577
0.000855437
0.000853291
0.000851188
0.000849085
0.00084702
0.000844959
0.000842928
0.000840913
0.00083892
0.000836951
0.000834989
0.000833067
0.000831133
0.000829257
0.00082734
0.000825533
0.000823597
0.000821896
0.000819876
0.000818324
0.00081619
0.000814723
0.000812143
0.000132774
0.000131776
0.000130793
0.000129823
0.000128868
0.000127927
0.000127
0.000126088
0.000125189
0.000124304
0.000123433
0.000122577
0.000121733
0.000120904
0.000120089
0.000119287
0.000118498
0.000117724
0.000116963
0.000116216
0.000115482
0.000114762
0.000114056
0.000113364
0.000112685
0.00011202
0.000111369
0.000110731
0.000110107
0.000109497
0.000108901
0.000108319
0.000107751
0.000107197
0.000106657
0.00010613
0.000105618
0.00010512
0.000104636
0.000104166
0.000103711
0.00010327
0.000102844
0.000102432
0.000102035
0.000101652
0.000101285
0.000100932
0.000100594
0.000100271
9.99646e-05
9.96727e-05
9.93971e-05
9.91368e-05
9.88932e-05
9.86652e-05
9.84544e-05
9.82598e-05
9.80827e-05
9.79224e-05
9.77802e-05
9.76553e-05
9.75494e-05
9.74616e-05
9.73939e-05
9.73443e-05
9.73174e-05
9.73152e-05
9.73229e-05
9.73483e-05
9.74057e-05
9.74829e-05
9.7587e-05
9.77104e-05
9.78633e-05
9.80366e-05
9.82418e-05
9.84684e-05
9.87297e-05
9.90131e-05
9.93346e-05
9.9679e-05
0.000100065
0.000100475
0.000100931
0.000101412
0.000101943
0.000102501
0.000103115
0.000103754
0.000104459
0.000105187
0.000105991
0.000106814
0.00010773
0.000108663
0.000109709
0.000110769
0.000111963
0.000113167
0.000114528
0.000115894
0.000117439
0.000118988
0.000120738
0.000122483
0.000124464
0.00012645
0.000128709
0.000130993
0.000133569
0.000136206
0.000139143
0.000142152
0.000145508
0.000149009
0.00015288
0.000157
0.000161453
0.000166233
0.000171426
0.000177079
0.000183234
0.000189844
0.000197099
0.000205059
0.000213766
0.000223204
0.000233733
0.000245349
0.000257836
0.000272314
0.000287632
0.000305467
0.000324698
0.000346833
0.000371259
0.000399238
0.000430523
0.000466535
0.000507212
0.000554377
0.000608598
0.000671932
0.000746347
0.000834218
0.000940129
0.00106917
0.00122902
0.00143247
0.00169655
0.00203609
0.00245713
0.00295421
0.00351539
0.00412385
0.00476253
0.0054027
0.00601846
0.00659921
0.00712834
0.00759293
0.00798877
0.00830109
0.00852216
0.00867834
0.00879111
0.00886133
0.00889113
0.00889224
0.00887838
0.00885084
0.00881547
0.00877641
0.00873385
0.00868862
0.00864257
0.00859575
0.00854772
0.00849954
0.00845099
0.00840233
0.00835339
0.00830437
0.00825572
0.00820711
0.00815877
0.00811053
0.00806265
0.00801498
0.00796765
0.00792053
0.00787369
0.00782708
0.00778072
0.00773446
0.00768825
0.00764203
0.00759588
0.00754966
0.00750275
0.00745481
0.00740625
0.00735785
0.00731027
0.00726388
0.00721878
0.00717494
0.0071323
0.00709079
0.00705032
0.00701084
0.00697238
0.00693481
0.00689804
0.006862
0.00682669
0.00679207
0.00675816
0.00672492
0.00669236
0.00666044
0.00662913
0.00659842
0.00656836
0.00653877
0.00650969
0.006481
0.00645281
0.00642501
0.00639769
0.00637077
0.00634432
0.00631824
0.00629263
0.00626734
0.0062425
0.006218
0.0061939
0.00617003
0.00614651
0.0061232
0.00610027
0.00607755
0.0060552
0.00603306
0.00601131
0.00598973
0.00596853
0.00594751
0.00592685
0.00590632
0.00588621
0.0058662
0.00584653
0.0058269
0.00580762
0.00578838
0.00576952
0.00575069
0.00573226
0.00571385
0.00569583
0.00567782
0.0056602
0.00564258
0.00562536
0.00560812
0.00559128
0.0055744
0.00555797
0.00554148
0.00552536
0.00550914
0.00549332
0.00547739
0.00546188
0.00544626
0.00543105
0.00541573
0.00540084
0.00538584
0.00537125
0.00535654
0.00534225
0.00532783
0.00531381
0.00529969
0.00528597
0.00527213
0.00525867
0.00524513
0.0052319
0.00521858
0.00520555
0.00519248
0.00517967
0.00516687
0.00515429
0.00514174
0.00512937
0.0051171
0.00510496
0.00509297
0.00508103
0.00506932
0.00505754
0.00504612
0.00503445
0.00502344
0.00501166
0.0050013
0.004989
0.00497955
0.00496655
0.00495762
0.00494191
0.000290267
0.000288085
0.000285934
0.000283815
0.000281727
0.00027967
0.000277643
0.000275648
0.000273684
0.00027175
0.000269846
0.000267973
0.000266129
0.000264316
0.000262533
0.00026078
0.000259057
0.000257364
0.0002557
0.000254067
0.000252463
0.000250889
0.000249345
0.000247832
0.000246348
0.000244894
0.00024347
0.000242076
0.000240712
0.000239379
0.000238076
0.000236803
0.000235561
0.000234349
0.000233168
0.000232017
0.000230898
0.000229809
0.000228751
0.000227724
0.000226729
0.000225765
0.000224833
0.000223932
0.000223064
0.000222227
0.000221424
0.000220653
0.000219915
0.000219209
0.000218538
0.0002179
0.000217298
0.000216729
0.000216196
0.000215698
0.000215237
0.000214811
0.000214424
0.000214074
0.000213763
0.00021349
0.000213259
0.000213067
0.000212919
0.00021281
0.000212752
0.000212747
0.000212764
0.000212819
0.000212945
0.000213114
0.000213342
0.000213611
0.000213946
0.000214325
0.000214774
0.000215269
0.000215841
0.00021646
0.000217163
0.000217916
0.000218761
0.000219657
0.000220654
0.000221705
0.000222868
0.000224086
0.000225429
0.000226826
0.00022837
0.000229959
0.000231718
0.000233518
0.000235521
0.000237562
0.000239849
0.000242166
0.000244778
0.00024741
0.000250387
0.000253373
0.000256753
0.000260139
0.000263966
0.000267781
0.000272114
0.000276457
0.000281397
0.000286393
0.000292025
0.000297793
0.000304213
0.000310795
0.000318134
0.000325792
0.000334256
0.000343267
0.000353004
0.00036346
0.000374814
0.000387181
0.000400639
0.0004151
0.000430964
0.000448377
0.000467417
0.000488064
0.000511089
0.0005365
0.000563808
0.000595478
0.000628982
0.000667992
0.000710062
0.000758475
0.000811911
0.000873109
0.000941547
0.00102032
0.0011093
0.00121247
0.00133106
0.0014696
0.00163236
0.00182452
0.00205611
0.00233823
0.00268753
0.00313193
0.00370854
0.00445008
0.00537025
0.0064576
0.00768617
0.00901919
0.0104195
0.0118243
0.0131762
0.014452
0.0156153
0.0166374
0.017509
0.0181981
0.0186867
0.0190317
0.0192811
0.0194372
0.0195043
0.0195078
0.019478
0.0194182
0.0193409
0.0192553
0.0191621
0.0190629
0.0189618
0.018859
0.0187535
0.0186477
0.018541
0.0184341
0.0183265
0.0182187
0.0181118
0.0180049
0.0178987
0.0177926
0.0176873
0.0175825
0.0174785
0.0173749
0.0172719
0.0171694
0.0170674
0.0169658
0.0168642
0.0167625
0.0166611
0.0165595
0.0164564
0.016351
0.0162443
0.0161379
0.0160333
0.0159312
0.0158321
0.0157356
0.0156419
0.0155506
0.0154616
0.0153748
0.0152902
0.0152076
0.0151268
0.0150475
0.0149699
0.0148938
0.0148192
0.0147461
0.0146746
0.0146044
0.0145356
0.0144681
0.014402
0.014337
0.014273
0.01421
0.014148
0.0140869
0.0140269
0.0139677
0.0139096
0.0138523
0.013796
0.0137404
0.0136859
0.013632
0.0135791
0.0135266
0.013475
0.0134237
0.0133734
0.0133234
0.0132743
0.0132257
0.0131779
0.0131305
0.0130839
0.0130377
0.0129924
0.0129473
0.0129031
0.0128591
0.0128159
0.0127728
0.0127305
0.0126882
0.0126468
0.0126054
0.0125649
0.0125245
0.0124849
0.0124453
0.0124067
0.0123679
0.0123301
0.0122923
0.0122553
0.0122182
0.0121821
0.0121459
0.0121105
0.0120749
0.0120402
0.0120052
0.0119711
0.0119368
0.0119034
0.0118698
0.0118371
0.0118041
0.0117721
0.0117398
0.0117084
0.0116768
0.011646
0.011615
0.0115848
0.0115545
0.0115249
0.0114952
0.0114661
0.0114369
0.0114083
0.0113796
0.0113515
0.0113233
0.0112957
0.0112682
0.011241
0.0112141
0.0111874
0.0111611
0.0111349
0.0111092
0.0110833
0.0110582
0.0110326
0.0110085
0.0109826
0.0109599
0.0109328
0.0109121
0.0108836
0.010864
0.0108295
0.000486298
0.000482643
0.00047904
0.000475489
0.000471991
0.000468544
0.00046515
0.000461807
0.000458515
0.000455275
0.000452086
0.000448948
0.00044586
0.000442822
0.000439835
0.000436898
0.00043401
0.000431174
0.000428387
0.00042565
0.000422963
0.000420327
0.00041774
0.000415204
0.000412718
0.000410282
0.000407896
0.000405561
0.000403276
0.000401042
0.000398859
0.000396727
0.000394646
0.000392616
0.000390637
0.000388709
0.000386834
0.000385009
0.000383237
0.000381517
0.00037985
0.000378234
0.000376673
0.000375164
0.00037371
0.000372308
0.000370962
0.00036967
0.000368434
0.000367252
0.000366128
0.000365059
0.000364049
0.000363096
0.000362204
0.000361369
0.000360597
0.000359884
0.000359236
0.000358649
0.000358128
0.000357671
0.000357284
0.000356962
0.000356714
0.000356533
0.000356435
0.000356427
0.000356456
0.000356549
0.00035676
0.000357043
0.000357425
0.000357877
0.000358438
0.000359073
0.000359826
0.000360655
0.000361614
0.000362652
0.000363831
0.000365092
0.000366509
0.00036801
0.000369682
0.000371443
0.000373392
0.000375433
0.000377685
0.000380026
0.000382614
0.000385277
0.000388226
0.000391241
0.000394601
0.000398018
0.000401854
0.000405736
0.000410116
0.000414524
0.000419516
0.000424519
0.000430187
0.00043586
0.000442276
0.00044867
0.000455933
0.000463213
0.000471494
0.000479868
0.000489309
0.000498978
0.000509739
0.000520774
0.000533076
0.000545916
0.000560101
0.000575211
0.000591531
0.000609065
0.000628096
0.000648836
0.000671394
0.000695647
0.000722238
0.000751442
0.00078336
0.000817989
0.000856588
0.000899213
0.000944995
0.000998113
0.0010543
0.00111972
0.00119029
0.00127148
0.00136111
0.00146376
0.00157856
0.0017107
0.00185997
0.00203305
0.00223196
0.00246438
0.00273741
0.00305973
0.00344816
0.00392122
0.00450668
0.00525108
0.00621656
0.00745859
0.00900128
0.0108265
0.0128912
0.0151336
0.0174915
0.0198602
0.0221411
0.0242951
0.0262613
0.0279902
0.0294663
0.0306369
0.0314686
0.0320558
0.032481
0.032749
0.0328661
0.0328747
0.0328262
0.0327271
0.0325974
0.0324537
0.0322969
0.0321297
0.0319592
0.0317858
0.0316077
0.0314289
0.0312487
0.031068
0.0308862
0.030704
0.0305232
0.0303425
0.0301628
0.0299834
0.0298054
0.0296281
0.029452
0.0292768
0.0291026
0.0289292
0.0287568
0.0285848
0.0284129
0.0282411
0.0280695
0.0278976
0.0277234
0.0275453
0.0273648
0.0271848
0.0270079
0.0268352
0.0266674
0.0265043
0.0263457
0.0261912
0.0260407
0.0258938
0.0257508
0.025611
0.0254743
0.0253403
0.025209
0.0250803
0.0249542
0.0248306
0.0247096
0.024591
0.0244746
0.0243605
0.0242488
0.0241388
0.0240308
0.0239242
0.0238195
0.0237162
0.0236148
0.0235148
0.0234165
0.0233197
0.0232246
0.0231307
0.0230384
0.0229474
0.022858
0.0227694
0.0226821
0.0225956
0.0225104
0.0224261
0.0223432
0.022261
0.0221802
0.0221002
0.0220215
0.0219435
0.0218669
0.0217907
0.021716
0.0216418
0.0215688
0.021496
0.0214245
0.0213531
0.0212832
0.0212134
0.021145
0.0210767
0.0210099
0.0209431
0.0208777
0.0208124
0.0207485
0.0206846
0.0206222
0.0205596
0.0204987
0.0204375
0.0203778
0.0203176
0.020259
0.0202
0.0201424
0.0200845
0.0200282
0.0199714
0.0199162
0.0198606
0.0198065
0.019752
0.019699
0.0196456
0.0195937
0.0195413
0.0194905
0.0194392
0.0193893
0.0193392
0.0192901
0.0192408
0.0191925
0.0191441
0.0190966
0.0190492
0.0190026
0.0189561
0.0189103
0.0188648
0.0188199
0.0187755
0.0187312
0.0186878
0.0186442
0.0186019
0.0185587
0.0185179
0.0184742
0.0184359
0.0183903
0.0183553
0.0183072
0.0182741
0.0182159
0.000719465
0.000714058
0.000708727
0.000703475
0.000698299
0.0006932
0.000688178
0.000683233
0.000678363
0.00067357
0.000668851
0.000664208
0.00065964
0.000655146
0.000650726
0.000646381
0.000642109
0.000637913
0.000633789
0.000629741
0.000625766
0.000621865
0.000618039
0.000614287
0.000610608
0.000607004
0.000603475
0.00060002
0.00059664
0.000593335
0.000590105
0.00058695
0.000583872
0.000580868
0.000577941
0.000575089
0.000572315
0.000569615
0.000566994
0.000564448
0.000561982
0.000559592
0.000557282
0.00055505
0.000552898
0.000550825
0.000548834
0.000546921
0.000545094
0.000543345
0.000541682
0.0005401
0.000538607
0.000537197
0.000535877
0.000534643
0.000533501
0.000532447
0.000531488
0.000530619
0.00052985
0.000529173
0.0005286
0.000528126
0.000527759
0.000527491
0.000527347
0.000527336
0.000527379
0.000527518
0.00052783
0.000528249
0.000528816
0.000529485
0.000530316
0.000531256
0.000532371
0.000533599
0.000535019
0.000536555
0.000538302
0.000540167
0.000542266
0.000544487
0.000546965
0.000549569
0.000552457
0.000555476
0.000558813
0.000562275
0.000566109
0.000570048
0.000574418
0.000578877
0.000583855
0.000588911
0.000594593
0.000600336
0.000606825
0.000613347
0.000620742
0.000628145
0.00063654
0.000644936
0.000654438
0.000663904
0.00067466
0.000685437
0.000697699
0.000710099
0.000724077
0.000738397
0.00075433
0.000770674
0.000788886
0.000807908
0.000828909
0.000851293
0.000875454
0.000901433
0.00092961
0.00096034
0.000993742
0.00102968
0.00106906
0.00111233
0.0011596
0.00121092
0.00126809
0.00133127
0.00139908
0.0014778
0.00156106
0.001658
0.0017626
0.00188293
0.00201581
0.00216796
0.00233815
0.00253406
0.00275537
0.00301202
0.00330691
0.00365161
0.00405649
0.00453442
0.00511037
0.00581163
0.00667908
0.00778128
0.00921013
0.011049
0.0133359
0.0160461
0.0191161
0.0224543
0.0259681
0.0295026
0.0329074
0.0361248
0.0390651
0.041653
0.043866
0.0456278
0.0468843
0.047772
0.0484171
0.0488278
0.0490123
0.0490326
0.0489654
0.0488224
0.0486318
0.0484199
0.0481877
0.0479394
0.0476857
0.0474274
0.0471619
0.0468949
0.0466257
0.0463556
0.0460839
0.0458112
0.0455406
0.04527
0.045001
0.0447323
0.0444655
0.0441999
0.0439362
0.0436735
0.0434124
0.0431526
0.0428941
0.0426363
0.0423787
0.0421211
0.0418639
0.0416064
0.0413454
0.0410786
0.0408083
0.0405385
0.0402731
0.0400142
0.0397626
0.0395179
0.0392799
0.0390483
0.0388226
0.0386023
0.0383878
0.0381782
0.0379732
0.0377723
0.0375755
0.0373825
0.0371936
0.0370083
0.0368269
0.0366491
0.0364748
0.0363037
0.0361363
0.0359716
0.0358097
0.03565
0.0354931
0.0353384
0.0351864
0.0350366
0.0348895
0.0347444
0.034602
0.0344613
0.0343232
0.034187
0.034053
0.0339203
0.0337896
0.0336601
0.0335326
0.0334064
0.0332822
0.0331592
0.0330383
0.0329185
0.0328007
0.0326839
0.0325692
0.0324552
0.0323435
0.0322324
0.0321232
0.0320142
0.0319072
0.0318004
0.0316957
0.0315913
0.031489
0.0313868
0.0312868
0.0311869
0.0310891
0.0309914
0.0308958
0.0308002
0.0307068
0.0306132
0.030522
0.0304306
0.0303412
0.0302513
0.0301636
0.0300753
0.0299893
0.0299027
0.0298184
0.0297335
0.029651
0.0295678
0.0294869
0.0294055
0.0293262
0.0292463
0.0291687
0.0290904
0.0290144
0.0289377
0.0288631
0.0287882
0.0287148
0.0286411
0.0285689
0.0284965
0.0284256
0.0283547
0.028285
0.0282155
0.028147
0.0280791
0.0280119
0.0279455
0.0278793
0.0278145
0.0277493
0.0276861
0.0276214
0.0275606
0.0274953
0.027438
0.0273698
0.0273176
0.0272456
0.0271963
0.0271093
0.000990445
0.000983001
0.000975664
0.000968434
0.000961309
0.000954291
0.000947378
0.000940571
0.000933868
0.00092727
0.000920774
0.000914384
0.000908095
0.000901909
0.000895825
0.000889844
0.000883964
0.000878187
0.000872511
0.000866938
0.000861466
0.000856097
0.00085083
0.000845665
0.000840601
0.000835641
0.000830782
0.000826026
0.000821374
0.000816824
0.000812378
0.000808035
0.000803798
0.000799663
0.000795634
0.000791708
0.000787889
0.000784173
0.000780564
0.00077706
0.000773665
0.000770376
0.000767197
0.000764123
0.000761162
0.000758308
0.000755568
0.000752935
0.000750419
0.000748012
0.000745724
0.000743547
0.000741492
0.000739551
0.000737735
0.000736036
0.000734465
0.000733014
0.000731695
0.0007305
0.000729441
0.000728511
0.000727723
0.000727071
0.000726567
0.000726199
0.000726002
0.000725988
0.000726048
0.00072624
0.000726673
0.000727251
0.000728032
0.000728955
0.000730101
0.000731396
0.000732934
0.000734625
0.000736584
0.000738699
0.000741109
0.000743678
0.000746572
0.00074963
0.000753047
0.000756632
0.000760616
0.000764771
0.000769374
0.000774139
0.000779428
0.00078485
0.000790878
0.000797015
0.000803882
0.000810841
0.000818679
0.000826586
0.000835534
0.000844516
0.000854713
0.000864908
0.000876483
0.000888049
0.000901148
0.00091419
0.000929016
0.000943868
0.00096077
0.000977861
0.000997126
0.00101687
0.00103882
0.00106136
0.00108646
0.00111269
0.00114163
0.0011725
0.0012058
0.00124164
0.00128047
0.00132287
0.00136891
0.00141849
0.00147277
0.00153248
0.00159766
0.00166847
0.0017473
0.00183449
0.00192803
0.00203667
0.00215155
0.00228531
0.00242971
0.00259578
0.00277924
0.00298928
0.0032243
0.00349483
0.0038005
0.00415502
0.00456228
0.00503856
0.00559797
0.00625828
0.00705405
0.00802273
0.00922038
0.010741
0.0127112
0.0152481
0.0184075
0.0221579
0.0264104
0.0310365
0.0359064
0.0408077
0.0455277
0.0499883
0.0540686
0.0576638
0.0607437
0.0632084
0.0649765
0.0662293
0.0671449
0.0677372
0.0680152
0.0680623
0.0679835
0.0677994
0.0675455
0.0672605
0.0669459
0.0666076
0.0662602
0.0659059
0.0655407
0.0651725
0.0648009
0.0644273
0.0640513
0.0636733
0.063298
0.0629225
0.0625488
0.0621755
0.0618046
0.0614352
0.0610681
0.0607026
0.060339
0.0599771
0.0596171
0.0592579
0.058899
0.05854
0.0581815
0.0578226
0.0574591
0.0570875
0.0567108
0.0563346
0.0559644
0.0556031
0.0552517
0.05491
0.0545778
0.0542543
0.0539391
0.0536314
0.0533319
0.0530392
0.052753
0.0524724
0.0521976
0.0519282
0.0516644
0.0514058
0.0511526
0.0509043
0.0506609
0.0504221
0.0501885
0.0499586
0.0497326
0.0495098
0.0492909
0.049075
0.0488629
0.0486539
0.0484486
0.0482462
0.0480475
0.0478512
0.0476585
0.0474685
0.0472816
0.0470965
0.0469142
0.0467335
0.0465557
0.0463796
0.0462065
0.0460349
0.0458664
0.0456992
0.045535
0.0453721
0.0452122
0.0450532
0.0448974
0.0447425
0.0445903
0.0444383
0.0442891
0.0441402
0.0439942
0.0438486
0.043706
0.0435635
0.0434242
0.0432848
0.0431486
0.0430123
0.0428791
0.0427459
0.0426156
0.0424851
0.0423581
0.0422306
0.0421061
0.0419808
0.0418585
0.0417355
0.0416156
0.0414949
0.0413774
0.0412592
0.0411441
0.0410283
0.0409156
0.0408021
0.0406917
0.0405803
0.0404721
0.0403631
0.0402571
0.0401503
0.0400464
0.0399419
0.0398398
0.039737
0.0396365
0.0395356
0.0394368
0.039338
0.0392409
0.0391441
0.0390487
0.0389541
0.0388604
0.038768
0.0386758
0.0385855
0.0384947
0.0384066
0.0383166
0.0382318
0.0381408
0.0380611
0.0379661
0.0378934
0.037793
0.0377245
0.0376031
0.00130102
0.00129125
0.00128161
0.00127212
0.00126276
0.00125354
0.00124446
0.00123552
0.00122672
0.00121806
0.00120953
0.00120113
0.00119287
0.00118475
0.00117676
0.0011689
0.00116118
0.00115359
0.00114614
0.00113882
0.00113163
0.00112458
0.00111766
0.00111088
0.00110423
0.00109771
0.00109133
0.00108509
0.00107898
0.001073
0.00106716
0.00106146
0.00105589
0.00105046
0.00104517
0.00104002
0.001035
0.00103012
0.00102538
0.00102078
0.00101632
0.001012
0.00100782
0.00100379
0.0009999
0.000996151
0.000992553
0.000989096
0.000985792
0.000982631
0.000979627
0.000976768
0.00097407
0.000971522
0.000969137
0.000966907
0.000964844
0.00096294
0.000961208
0.000959641
0.000958251
0.000957031
0.000955998
0.000955143
0.000954484
0.000954002
0.000953747
0.000953729
0.000953809
0.000954066
0.000954637
0.000955398
0.000956429
0.000957643
0.000959154
0.000960856
0.000962883
0.000965106
0.000967686
0.000970466
0.000973639
0.000977015
0.000980827
0.000984844
0.000989344
0.000994055
0.000999301
0.00100476
0.00101082
0.00101708
0.00102405
0.00103117
0.00103911
0.00104717
0.00105621
0.00106536
0.00107568
0.00108607
0.00109785
0.00110965
0.00112308
0.00113648
0.00115171
0.00116692
0.00118416
0.00120131
0.00122082
0.00124036
0.0012626
0.00128509
0.00131044
0.00133642
0.0013653
0.00139497
0.00142799
0.00146253
0.00150061
0.00154126
0.00158507
0.00163227
0.00168337
0.00173921
0.0017998
0.00186512
0.00193657
0.00201524
0.00210104
0.00219436
0.00229816
0.00241308
0.00253628
0.00267946
0.00283087
0.00300715
0.00319755
0.00341648
0.00365845
0.00393544
0.00424548
0.00460241
0.00500578
0.00547372
0.00601121
0.00664014
0.00737886
0.00825087
0.00930189
0.0105811
0.0121618
0.0141673
0.0167639
0.0201082
0.0242758
0.0292248
0.0348319
0.0409234
0.0473272
0.0537695
0.0599679
0.0658235
0.0711839
0.075912
0.0799704
0.083237
0.0855976
0.087277
0.0885134
0.0893292
0.0897324
0.0898284
0.0897526
0.0895384
0.0892266
0.0888712
0.0884746
0.0880443
0.0875995
0.0871444
0.0866732
0.0861965
0.0857143
0.0852283
0.0847385
0.0842451
0.0837546
0.0832632
0.0827737
0.0822841
0.0817973
0.081312
0.0808295
0.0803487
0.0798703
0.0793937
0.0789194
0.0784461
0.0779731
0.0774997
0.0770267
0.0765533
0.076074
0.0755841
0.0750871
0.0745904
0.0741011
0.0736232
0.0731583
0.072706
0.0722661
0.0718377
0.0714202
0.0710126
0.0706157
0.070228
0.0698488
0.069477
0.0691129
0.068756
0.0684065
0.0680638
0.0677283
0.0673994
0.0670769
0.0667604
0.0664508
0.0661462
0.0658468
0.0655517
0.0652615
0.0649755
0.0646946
0.0644177
0.0641457
0.0638775
0.0636142
0.0633542
0.0630988
0.062847
0.0625994
0.0623542
0.0621126
0.0618733
0.0616378
0.0614044
0.0611751
0.0609477
0.0607244
0.060503
0.0602854
0.0600696
0.0598577
0.059647
0.0594406
0.0592354
0.0590336
0.0588323
0.0586346
0.0584374
0.058244
0.058051
0.057862
0.0576733
0.0574886
0.057304
0.0571235
0.0569429
0.0567665
0.0565899
0.0564173
0.0562444
0.056076
0.0559071
0.0557422
0.0555761
0.0554141
0.0552511
0.0550923
0.0549324
0.0547767
0.05462
0.0544676
0.0543141
0.0541648
0.0540143
0.053868
0.0537205
0.0535771
0.0534327
0.0532923
0.0531508
0.053013
0.0528746
0.0527392
0.052603
0.0524698
0.0523362
0.0522052
0.0520743
0.0519457
0.0518174
0.051691
0.0515655
0.0514414
0.0513189
0.0511968
0.0510771
0.0509567
0.0508401
0.0507206
0.0506084
0.0504877
0.0503821
0.050256
0.05016
0.0500265
0.0499364
0.0497749
0.00165378
0.00164136
0.00162911
0.00161705
0.00160516
0.00159345
0.00158191
0.00157055
0.00155937
0.00154835
0.00153752
0.00152685
0.00151635
0.00150603
0.00149588
0.0014859
0.00147608
0.00146644
0.00145697
0.00144767
0.00143854
0.00142957
0.00142078
0.00141216
0.00140371
0.00139543
0.00138732
0.00137939
0.00137162
0.00136403
0.00135661
0.00134936
0.00134229
0.00133539
0.00132866
0.00132211
0.00131574
0.00130953
0.00130351
0.00129766
0.001292
0.00128651
0.00128121
0.00127608
0.00127114
0.00126637
0.0012618
0.00125741
0.00125321
0.0012492
0.00124538
0.00124175
0.00123832
0.00123508
0.00123206
0.00122922
0.0012266
0.00122419
0.00122199
0.00122
0.00121823
0.00121669
0.00121538
0.00121429
0.00121346
0.00121285
0.00121253
0.00121251
0.00121262
0.00121295
0.00121368
0.00121465
0.00121597
0.00121752
0.00121945
0.00122161
0.0012242
0.00122703
0.00123032
0.00123386
0.00123791
0.0012422
0.00124706
0.00125217
0.00125791
0.0012639
0.00127059
0.00127753
0.00128526
0.00129322
0.0013021
0.00131116
0.00132128
0.00133154
0.00134307
0.0013547
0.00136785
0.00138107
0.00139609
0.00141111
0.00142822
0.00144528
0.00146469
0.00148405
0.00150602
0.00152786
0.00155272
0.00157761
0.00160594
0.0016346
0.00166688
0.0017
0.00173679
0.00177462
0.00181667
0.00186071
0.00190922
0.00196106
0.00201687
0.00207708
0.00214219
0.00221344
0.00229065
0.00237399
0.00246506
0.00256547
0.00267487
0.00279399
0.00292638
0.00307311
0.00323029
0.00341311
0.00360643
0.00383149
0.00407474
0.00435439
0.00466364
0.00501761
0.00541401
0.00587042
0.00638639
0.00698513
0.00767278
0.00847804
0.00942394
0.0105407
0.0118871
0.0135255
0.0155492
0.018114
0.0214293
0.025693
0.0309976
0.0372828
0.0443831
0.0520755
0.0601438
0.0682542
0.0760505
0.0834109
0.0901496
0.0960987
0.101214
0.105355
0.10837
0.110523
0.112119
0.113192
0.113749
0.113916
0.113859
0.113628
0.113268
0.112849
0.112375
0.111855
0.111314
0.110758
0.110181
0.109594
0.108998
0.108397
0.10779
0.107176
0.106566
0.105953
0.105342
0.104731
0.104122
0.103515
0.10291
0.102307
0.101707
0.101108
0.100512
0.0999175
0.0993227
0.0987271
0.0981318
0.097536
0.0969328
0.0963164
0.0956905
0.0950643
0.0944468
0.0938431
0.0932554
0.0926834
0.0921267
0.0915845
0.0910558
0.0905397
0.090037
0.0895459
0.0890655
0.0885945
0.0881332
0.0876809
0.0872381
0.0868038
0.0863786
0.0859616
0.0855529
0.0851517
0.0847591
0.084373
0.0839935
0.0836193
0.0832514
0.0828888
0.0825326
0.0821814
0.0818365
0.0814963
0.0811624
0.0808326
0.0805087
0.0801893
0.0798752
0.0795641
0.0792577
0.0789541
0.0786553
0.0783593
0.0780682
0.0777798
0.0774964
0.0772154
0.0769393
0.0766654
0.0763965
0.076129
0.0758671
0.0756066
0.0753505
0.075095
0.074844
0.0745936
0.0743481
0.0741031
0.0738632
0.0736236
0.073389
0.0731546
0.0729254
0.072696
0.072472
0.0722477
0.0720285
0.0718089
0.071595
0.0713805
0.071171
0.0709601
0.0707543
0.0705473
0.0703455
0.0701424
0.0699446
0.0697455
0.0695519
0.0693568
0.0691671
0.0689759
0.06879
0.0686026
0.0684204
0.0682368
0.0680583
0.0678785
0.0677034
0.0675275
0.0673554
0.0671823
0.0670129
0.0668431
0.0666767
0.0665102
0.0663467
0.0661836
0.0660229
0.0658634
0.0657056
0.0655498
0.0653945
0.0652424
0.0650892
0.0649409
0.064789
0.0646463
0.0644927
0.0643586
0.0641979
0.0640763
0.0639057
0.0637925
0.0635858
0.00205196
0.00203656
0.00202138
0.00200642
0.00199167
0.00197715
0.00196285
0.00194876
0.00193489
0.00192124
0.00190779
0.00189457
0.00188155
0.00186875
0.00185616
0.00184378
0.00183161
0.00181965
0.00180791
0.00179637
0.00178505
0.00177393
0.00176303
0.00175234
0.00174186
0.00173159
0.00172154
0.00171169
0.00170206
0.00169264
0.00168344
0.00167445
0.00166568
0.00165712
0.00164879
0.00164066
0.00163276
0.00162506
0.0016176
0.00161034
0.00160332
0.00159651
0.00158993
0.00158357
0.00157745
0.00157154
0.00156587
0.00156043
0.00155522
0.00155025
0.00154551
0.00154101
0.00153676
0.00153275
0.001529
0.00152549
0.00152224
0.00151925
0.00151653
0.00151406
0.00151188
0.00150997
0.00150835
0.00150701
0.00150598
0.00150524
0.00150485
0.00150483
0.00150496
0.00150539
0.00150631
0.00150752
0.00150916
0.00151109
0.0015135
0.0015162
0.00151942
0.00152294
0.00152704
0.00153144
0.00153648
0.00154182
0.00154788
0.00155422
0.00156137
0.00156881
0.00157715
0.00158577
0.0015954
0.00160528
0.00161635
0.00162759
0.0016402
0.00165293
0.0016673
0.00168174
0.00169813
0.00171455
0.00173325
0.00175192
0.00177322
0.00179442
0.00181859
0.00184266
0.00187
0.00189717
0.0019281
0.00195907
0.00199433
0.00203
0.00207017
0.0021114
0.00215717
0.00220428
0.00225661
0.00231148
0.00237183
0.00243643
0.00250589
0.00258093
0.00266197
0.00275079
0.00284692
0.00295084
0.00306427
0.00318949
0.00332579
0.00347439
0.00363938
0.00382249
0.00401849
0.00424664
0.0044879
0.00476878
0.00507259
0.0054218
0.00580824
0.00625054
0.00674614
0.00731689
0.00796242
0.0087118
0.00957242
0.0105812
0.0117664
0.0131661
0.014854
0.0169076
0.0194414
0.0226447
0.0267686