/*--------------------------------*- C++ -*----------------------------------*\
| =========                 |                                                 |
| \\      /  F ield         | OpenFOAM: The Open Source CFD Toolbox           |
|  \\    /   O peration     | Version:  v1912                                 |
|   \\  /    A nd           | Website:  www.openfoam.com                      |
|    \\/     M anipulation  |                                                 |
\*---------------------------------------------------------------------------*/
FoamFile
{
    version     2.0;
    format      ascii;
    class       volScalarField;
    location    "5000";
    object      nut;
}
// * * * * * * * * * * * * * * * * * * * * * * * * * * * * * * * * * * * * * //

dimensions      [0 2 -1 0 0 0 0];


internalField   nonuniform List<scalar> 
33419
(
6.21861e-14
6.1652e-14
6.11247e-14
6.06041e-14
6.00901e-14
5.95829e-14
5.90822e-14
5.85882e-14
5.81006e-14
5.76194e-14
5.71447e-14
5.66762e-14
5.6214e-14
5.57579e-14
5.5308e-14
5.48642e-14
5.44264e-14
5.39948e-14
5.35691e-14
5.31494e-14
5.27357e-14
5.23278e-14
5.19257e-14
5.15295e-14
5.1139e-14
5.07542e-14
5.03751e-14
5.00017e-14
4.96339e-14
4.92718e-14
4.89153e-14
4.85644e-14
4.8219e-14
4.78791e-14
4.75447e-14
4.72157e-14
4.68922e-14
4.65739e-14
4.62611e-14
4.59535e-14
4.56514e-14
4.53546e-14
4.50631e-14
4.47768e-14
4.44959e-14
4.42201e-14
4.39497e-14
4.36842e-14
4.34242e-14
4.31691e-14
4.29193e-14
4.26745e-14
4.24351e-14
4.22008e-14
4.19718e-14
4.17478e-14
4.15292e-14
4.13156e-14
4.11074e-14
4.09042e-14
4.07064e-14
4.05136e-14
4.03263e-14
4.01442e-14
3.99677e-14
3.97963e-14
3.9631e-14
3.9472e-14
3.93163e-14
3.91654e-14
3.90222e-14
3.8884e-14
3.87524e-14
3.86256e-14
3.85057e-14
3.83908e-14
3.82831e-14
3.81805e-14
3.80855e-14
3.79956e-14
3.79138e-14
3.78369e-14
3.77687e-14
3.77055e-14
3.76514e-14
3.76023e-14
3.7563e-14
3.75287e-14
3.7505e-14
3.7486e-14
3.74792e-14
3.74761e-14
3.74867e-14
3.75002e-14
3.75298e-14
3.75618e-14
3.76127e-14
3.76652e-14
3.77399e-14
3.78148e-14
3.79152e-14
3.80146e-14
3.81424e-14
3.82685e-14
3.84255e-14
3.8579e-14
3.87676e-14
3.89537e-14
3.91794e-14
3.94049e-14
3.96711e-14
3.99416e-14
4.0252e-14
4.05671e-14
4.09269e-14
4.13002e-14
4.17186e-14
4.21631e-14
4.26447e-14
4.31598e-14
4.37192e-14
4.43258e-14
4.49837e-14
4.56838e-14
4.64472e-14
4.72772e-14
4.8176e-14
4.91373e-14
5.01975e-14
5.13505e-14
5.25688e-14
5.39622e-14
5.54062e-14
5.70612e-14
5.88052e-14
6.07764e-14
6.2902e-14
6.52834e-14
6.78836e-14
7.08056e-14
7.40277e-14
7.76698e-14
8.17556e-14
8.64071e-14
9.17348e-14
9.78713e-14
1.05076e-13
1.13626e-13
1.23934e-13
1.36664e-13
1.5266e-13
1.72641e-13
1.96957e-13
2.25517e-13
2.57986e-13
2.93819e-13
3.32371e-13
3.72396e-13
4.12554e-13
4.52234e-13
4.90596e-13
5.26901e-13
5.60622e-13
5.90746e-13
6.16668e-13
6.38911e-13
6.57776e-13
6.7331e-13
6.85628e-13
6.95101e-13
7.02375e-13
7.07728e-13
7.11525e-13
7.14069e-13
7.15596e-13
7.16227e-13
7.16104e-13
7.15423e-13
7.14202e-13
7.12535e-13
7.10474e-13
7.08121e-13
7.05488e-13
7.02626e-13
6.99579e-13
6.96356e-13
6.93e-13
6.89518e-13
6.85935e-13
6.82263e-13
6.78517e-13
6.74703e-13
6.70834e-13
6.66915e-13
6.62956e-13
6.58951e-13
6.54908e-13
6.50828e-13
6.46716e-13
6.42562e-13
6.38349e-13
6.34065e-13
6.29713e-13
6.25331e-13
6.20955e-13
6.16606e-13
6.12307e-13
6.08072e-13
6.03915e-13
5.99842e-13
5.95858e-13
5.9196e-13
5.88153e-13
5.84433e-13
5.80797e-13
5.77238e-13
5.73756e-13
5.70347e-13
5.67011e-13
5.63743e-13
5.60547e-13
5.57414e-13
5.54347e-13
5.5134e-13
5.48398e-13
5.45509e-13
5.42678e-13
5.39892e-13
5.37159e-13
5.34468e-13
5.31827e-13
5.29226e-13
5.26674e-13
5.2416e-13
5.21693e-13
5.1926e-13
5.16872e-13
5.14518e-13
5.12207e-13
5.09923e-13
5.07678e-13
5.05456e-13
5.03272e-13
5.01111e-13
4.98987e-13
4.96884e-13
4.94819e-13
4.92773e-13
4.90764e-13
4.88772e-13
4.86818e-13
4.84878e-13
4.82977e-13
4.81088e-13
4.79235e-13
4.77389e-13
4.75579e-13
4.73775e-13
4.72006e-13
4.70243e-13
4.68516e-13
4.66793e-13
4.65107e-13
4.63424e-13
4.61778e-13
4.60134e-13
4.58527e-13
4.5692e-13
4.5535e-13
4.53779e-13
4.52248e-13
4.50717e-13
4.49222e-13
4.47721e-13
4.46255e-13
4.44783e-13
4.43347e-13
4.41905e-13
4.40499e-13
4.39088e-13
4.37712e-13
4.3633e-13
4.34983e-13
4.3363e-13
4.32311e-13
4.30987e-13
4.29696e-13
4.28401e-13
4.27137e-13
4.25869e-13
4.2463e-13
4.2339e-13
4.22175e-13
4.20961e-13
4.19767e-13
4.18577e-13
4.17403e-13
4.16237e-13
4.15084e-13
4.13943e-13
4.12812e-13
4.11698e-13
4.10586e-13
4.09498e-13
4.08404e-13
4.07342e-13
4.06262e-13
4.05234e-13
4.04154e-13
4.03179e-13
4.02064e-13
4.01186e-13
3.99965e-13
3.99279e-13
3.97825e-13
3.97641e-13
3.95428e-13
4.39684e-12
4.35912e-12
4.32187e-12
4.2851e-12
4.2488e-12
4.21297e-12
4.17761e-12
4.14271e-12
4.10827e-12
4.07429e-12
4.04075e-12
4.00766e-12
3.97501e-12
3.9428e-12
3.91102e-12
3.87967e-12
3.84875e-12
3.81826e-12
3.78819e-12
3.75854e-12
3.72932e-12
3.7005e-12
3.6721e-12
3.64411e-12
3.61653e-12
3.58935e-12
3.56257e-12
3.53619e-12
3.51021e-12
3.48463e-12
3.45945e-12
3.43466e-12
3.41027e-12
3.38625e-12
3.36263e-12
3.33939e-12
3.31653e-12
3.29405e-12
3.27195e-12
3.25023e-12
3.22888e-12
3.20791e-12
3.18732e-12
3.1671e-12
3.14725e-12
3.12777e-12
3.10866e-12
3.08991e-12
3.07153e-12
3.05351e-12
3.03586e-12
3.01857e-12
3.00166e-12
2.9851e-12
2.96892e-12
2.95309e-12
2.93764e-12
2.92255e-12
2.90784e-12
2.89348e-12
2.8795e-12
2.86588e-12
2.85264e-12
2.83977e-12
2.8273e-12
2.81519e-12
2.8035e-12
2.79226e-12
2.78126e-12
2.77059e-12
2.76047e-12
2.7507e-12
2.7414e-12
2.73244e-12
2.72397e-12
2.71584e-12
2.70823e-12
2.70097e-12
2.69426e-12
2.6879e-12
2.68212e-12
2.67669e-12
2.67187e-12
2.66739e-12
2.66357e-12
2.6601e-12
2.65732e-12
2.65489e-12
2.65323e-12
2.65188e-12
2.6514e-12
2.65118e-12
2.65193e-12
2.65288e-12
2.65498e-12
2.65724e-12
2.66085e-12
2.66455e-12
2.66984e-12
2.67513e-12
2.68224e-12
2.68927e-12
2.69831e-12
2.70723e-12
2.71834e-12
2.72919e-12
2.74254e-12
2.7557e-12
2.77166e-12
2.78761e-12
2.80644e-12
2.82558e-12
2.84753e-12
2.86983e-12
2.89527e-12
2.92168e-12
2.95127e-12
2.98272e-12
3.01677e-12
3.05322e-12
3.09278e-12
3.1357e-12
3.18222e-12
3.23175e-12
3.28574e-12
3.34446e-12
3.40801e-12
3.47602e-12
3.55099e-12
3.63256e-12
3.71871e-12
3.81727e-12
3.9194e-12
4.03644e-12
4.1598e-12
4.29922e-12
4.44956e-12
4.61796e-12
4.80186e-12
5.00849e-12
5.23635e-12
5.49391e-12
5.78279e-12
6.11171e-12
6.48841e-12
6.92224e-12
7.43155e-12
8.03592e-12
8.76436e-12
9.66369e-12
1.07937e-11
1.22057e-11
1.39251e-11
1.59457e-11
1.82439e-11
2.0781e-11
2.35113e-11
2.63471e-11
2.91925e-11
3.20042e-11
3.47226e-11
3.72947e-11
3.9683e-11
4.18169e-11
4.36521e-11
4.52245e-11
4.65585e-11
4.76581e-11
4.853e-11
4.92002e-11
4.97152e-11
5.00946e-11
5.03637e-11
5.05444e-11
5.06531e-11
5.06984e-11
5.06903e-11
5.06427e-11
5.05568e-11
5.04392e-11
5.02938e-11
5.01275e-11
4.99415e-11
4.97391e-11
4.95236e-11
4.92957e-11
4.90583e-11
4.88119e-11
4.85584e-11
4.82985e-11
4.80334e-11
4.77634e-11
4.74896e-11
4.72121e-11
4.69318e-11
4.66484e-11
4.63621e-11
4.60733e-11
4.57821e-11
4.54881e-11
4.51899e-11
4.48865e-11
4.45783e-11
4.4268e-11
4.3958e-11
4.365e-11
4.33456e-11
4.30456e-11
4.27512e-11
4.24628e-11
4.21806e-11
4.19046e-11
4.1635e-11
4.13715e-11
4.1114e-11
4.0862e-11
4.06154e-11
4.03739e-11
4.01377e-11
3.99063e-11
3.96799e-11
3.9458e-11
3.92409e-11
3.90279e-11
3.88195e-11
3.8615e-11
3.84145e-11
3.82172e-11
3.80236e-11
3.7833e-11
3.7646e-11
3.74618e-11
3.72811e-11
3.71031e-11
3.69283e-11
3.67561e-11
3.6587e-11
3.64202e-11
3.62566e-11
3.60949e-11
3.59359e-11
3.57786e-11
3.56239e-11
3.54709e-11
3.53205e-11
3.51716e-11
3.50253e-11
3.48804e-11
3.47382e-11
3.45972e-11
3.44588e-11
3.43214e-11
3.41868e-11
3.4053e-11
3.39218e-11
3.37911e-11
3.36629e-11
3.35352e-11
3.341e-11
3.32851e-11
3.31628e-11
3.30409e-11
3.29215e-11
3.28023e-11
3.26858e-11
3.25693e-11
3.24556e-11
3.23418e-11
3.22306e-11
3.21194e-11
3.2011e-11
3.19026e-11
3.17967e-11
3.16904e-11
3.15866e-11
3.14824e-11
3.13808e-11
3.12787e-11
3.11791e-11
3.10792e-11
3.09818e-11
3.08839e-11
3.07885e-11
3.06928e-11
3.05994e-11
3.05056e-11
3.04143e-11
3.03225e-11
3.0233e-11
3.01433e-11
3.00555e-11
2.99678e-11
2.98817e-11
2.97958e-11
2.97112e-11
2.9627e-11
2.95438e-11
2.94613e-11
2.93797e-11
2.92989e-11
2.92188e-11
2.91399e-11
2.90612e-11
2.89842e-11
2.89067e-11
2.88316e-11
2.87551e-11
2.86823e-11
2.86059e-11
2.85368e-11
2.84579e-11
2.83956e-11
2.83095e-11
2.82604e-11
2.81582e-11
2.81433e-11
2.79895e-11
3.26656e-11
3.23866e-11
3.21111e-11
3.18391e-11
3.15706e-11
3.13056e-11
3.1044e-11
3.07859e-11
3.05312e-11
3.02798e-11
3.00318e-11
2.9787e-11
2.95455e-11
2.93073e-11
2.90723e-11
2.88405e-11
2.86118e-11
2.83863e-11
2.81639e-11
2.79447e-11
2.77286e-11
2.75155e-11
2.73055e-11
2.70986e-11
2.68946e-11
2.66936e-11
2.64957e-11
2.63006e-11
2.61085e-11
2.59194e-11
2.57333e-11
2.555e-11
2.53697e-11
2.51922e-11
2.50176e-11
2.48458e-11
2.46768e-11
2.45107e-11
2.43473e-11
2.41867e-11
2.4029e-11
2.3874e-11
2.37218e-11
2.35724e-11
2.34257e-11
2.32817e-11
2.31405e-11
2.3002e-11
2.28662e-11
2.2733e-11
2.26026e-11
2.24748e-11
2.23498e-11
2.22275e-11
2.21079e-11
2.1991e-11
2.18769e-11
2.17654e-11
2.16566e-11
2.15505e-11
2.14473e-11
2.13466e-11
2.12488e-11
2.11537e-11
2.10616e-11
2.09721e-11
2.08858e-11
2.08027e-11
2.07214e-11
2.06426e-11
2.05678e-11
2.04957e-11
2.0427e-11
2.03607e-11
2.02982e-11
2.02381e-11
2.0182e-11
2.01283e-11
2.00788e-11
2.00318e-11
1.99892e-11
1.9949e-11
1.99135e-11
1.98805e-11
1.98524e-11
1.98268e-11
1.98064e-11
1.97885e-11
1.97764e-11
1.97665e-11
1.97632e-11
1.97617e-11
1.97675e-11
1.97747e-11
1.97906e-11
1.98075e-11
1.98346e-11
1.98623e-11
1.99018e-11
1.99413e-11
1.99944e-11
2.00468e-11
2.01143e-11
2.01808e-11
2.02637e-11
2.03446e-11
2.04442e-11
2.05423e-11
2.06613e-11
2.07803e-11
2.09206e-11
2.10633e-11
2.1227e-11
2.13932e-11
2.15829e-11
2.17798e-11
2.20004e-11
2.22349e-11
2.24887e-11
2.27605e-11
2.30553e-11
2.33754e-11
2.37222e-11
2.40915e-11
2.44939e-11
2.49318e-11
2.54055e-11
2.59127e-11
2.64715e-11
2.70797e-11
2.77219e-11
2.84568e-11
2.92182e-11
3.00907e-11
3.10105e-11
3.205e-11
3.31709e-11
3.44264e-11
3.57975e-11
3.73381e-11
3.9037e-11
4.09573e-11
4.31108e-11
4.55632e-11
4.83716e-11
5.16057e-11
5.54023e-11
5.9907e-11
6.53353e-11
7.20352e-11
8.04526e-11
9.0974e-11
1.03793e-10
1.18867e-10
1.36021e-10
1.54965e-10
1.75359e-10
1.96551e-10
2.17818e-10
2.38837e-10
2.59162e-10
2.78391e-10
2.96242e-10
3.12194e-10
3.25903e-10
3.37632e-10
3.47587e-10
3.55801e-10
3.62315e-10
3.67323e-10
3.71172e-10
3.74013e-10
3.76029e-10
3.77386e-10
3.78205e-10
3.7855e-10
3.78495e-10
3.78145e-10
3.77509e-10
3.76634e-10
3.75552e-10
3.74312e-10
3.72926e-10
3.71416e-10
3.69808e-10
3.68107e-10
3.66335e-10
3.64495e-10
3.62602e-10
3.6066e-10
3.5868e-10
3.56663e-10
3.54617e-10
3.52544e-10
3.5045e-10
3.48332e-10
3.46194e-10
3.44035e-10
3.4186e-10
3.39663e-10
3.37435e-10
3.35168e-10
3.32864e-10
3.30545e-10
3.28228e-10
3.25925e-10
3.2365e-10
3.21408e-10
3.19208e-10
3.17052e-10
3.14943e-10
3.12879e-10
3.10865e-10
3.08895e-10
3.06971e-10
3.05087e-10
3.03244e-10
3.01439e-10
2.99673e-10
2.97943e-10
2.96251e-10
2.94593e-10
2.9297e-10
2.91378e-10
2.89821e-10
2.88292e-10
2.86793e-10
2.85319e-10
2.83872e-10
2.82448e-10
2.8105e-10
2.79674e-10
2.78323e-10
2.76993e-10
2.75687e-10
2.74399e-10
2.73136e-10
2.7189e-10
2.70667e-10
2.69459e-10
2.68271e-10
2.67095e-10
2.65939e-10
2.64796e-10
2.63672e-10
2.62559e-10
2.61467e-10
2.60384e-10
2.59321e-10
2.58267e-10
2.57233e-10
2.56207e-10
2.55201e-10
2.54202e-10
2.53221e-10
2.52245e-10
2.51287e-10
2.50333e-10
2.49397e-10
2.48464e-10
2.47551e-10
2.46639e-10
2.45747e-10
2.44857e-10
2.43986e-10
2.43117e-10
2.42266e-10
2.41416e-10
2.40586e-10
2.39755e-10
2.38945e-10
2.38135e-10
2.37344e-10
2.3655e-10
2.35775e-10
2.34997e-10
2.34237e-10
2.33474e-10
2.32731e-10
2.31984e-10
2.31256e-10
2.30525e-10
2.29813e-10
2.29097e-10
2.284e-10
2.27699e-10
2.27017e-10
2.26332e-10
2.25663e-10
2.24993e-10
2.24337e-10
2.23682e-10
2.23039e-10
2.22397e-10
2.21765e-10
2.21136e-10
2.20515e-10
2.19898e-10
2.19289e-10
2.18685e-10
2.18087e-10
2.17498e-10
2.1691e-10
2.16335e-10
2.15756e-10
2.15194e-10
2.14623e-10
2.1408e-10
2.13509e-10
2.12993e-10
2.12404e-10
2.11937e-10
2.11296e-10
2.10926e-10
2.10168e-10
2.10043e-10
2.08916e-10
1.25905e-10
1.24838e-10
1.23784e-10
1.22744e-10
1.21717e-10
1.20704e-10
1.19704e-10
1.18717e-10
1.17743e-10
1.16782e-10
1.15833e-10
1.14898e-10
1.13974e-10
1.13064e-10
1.12165e-10
1.11279e-10
1.10405e-10
1.09544e-10
1.08694e-10
1.07856e-10
1.0703e-10
1.06217e-10
1.05414e-10
1.04624e-10
1.03845e-10
1.03077e-10
1.02321e-10
1.01577e-10
1.00844e-10
1.00122e-10
9.94111e-11
9.87117e-11
9.80236e-11
9.73463e-11
9.66803e-11
9.6025e-11
9.53807e-11
9.47471e-11
9.41244e-11
9.35122e-11
9.2911e-11
9.23203e-11
9.17405e-11
9.11711e-11
9.06124e-11
9.0064e-11
8.95264e-11
8.89988e-11
8.8482e-11
8.79752e-11
8.7479e-11
8.69928e-11
8.65174e-11
8.60521e-11
8.55976e-11
8.5153e-11
8.47192e-11
8.42955e-11
8.38824e-11
8.34795e-11
8.30873e-11
8.27052e-11
8.2334e-11
8.19732e-11
8.16236e-11
8.12842e-11
8.0957e-11
8.06424e-11
8.03343e-11
8.00356e-11
7.97526e-11
7.94795e-11
7.92197e-11
7.89693e-11
7.87329e-11
7.85062e-11
7.82944e-11
7.80922e-11
7.79058e-11
7.77289e-11
7.75688e-11
7.74181e-11
7.72853e-11
7.71619e-11
7.70575e-11
7.69625e-11
7.68878e-11
7.68223e-11
7.67792e-11
7.67444e-11
7.67352e-11
7.67324e-11
7.67583e-11
7.6789e-11
7.68534e-11
7.69213e-11
7.70291e-11
7.71386e-11
7.72944e-11
7.74494e-11
7.76576e-11
7.78624e-11
7.81262e-11
7.83855e-11
7.87087e-11
7.90238e-11
7.94115e-11
7.97933e-11
8.02565e-11
8.0719e-11
8.12648e-11
8.18197e-11
8.24557e-11
8.31021e-11
8.3839e-11
8.46048e-11
8.54617e-11
8.63732e-11
8.73592e-11
8.84158e-11
8.9561e-11
9.08052e-11
9.21523e-11
9.3588e-11
9.51512e-11
9.68532e-11
9.86937e-11
1.00665e-10
1.02836e-10
1.05201e-10
1.07695e-10
1.10552e-10
1.1351e-10
1.16901e-10
1.20476e-10
1.24516e-10
1.28873e-10
1.33752e-10
1.39081e-10
1.45069e-10
1.51672e-10
1.59136e-10
1.67504e-10
1.77037e-10
1.87951e-10
2.00519e-10
2.15273e-10
2.32774e-10
2.53857e-10
2.79869e-10
3.12542e-10
3.53394e-10
4.03203e-10
4.61828e-10
5.28687e-10
6.03893e-10
6.91825e-10
8.00989e-10
9.3477e-10
1.09097e-09
1.25536e-09
1.40847e-09
1.53638e-09
1.6243e-09
1.66619e-09
1.68122e-09
1.68503e-09
1.67881e-09
1.66444e-09
1.64741e-09
1.63192e-09
1.61708e-09
1.6036e-09
1.59171e-09
1.58065e-09
1.57012e-09
1.56016e-09
1.55053e-09
1.54096e-09
1.53152e-09
1.52208e-09
1.51268e-09
1.50323e-09
1.49375e-09
1.48431e-09
1.47482e-09
1.46535e-09
1.45584e-09
1.44635e-09
1.43685e-09
1.42736e-09
1.41787e-09
1.40839e-09
1.39892e-09
1.38946e-09
1.38e-09
1.37052e-09
1.36103e-09
1.35153e-09
1.34201e-09
1.33239e-09
1.32263e-09
1.31275e-09
1.30287e-09
1.29308e-09
1.28341e-09
1.27393e-09
1.26463e-09
1.25554e-09
1.24666e-09
1.238e-09
1.22954e-09
1.22129e-09
1.21324e-09
1.20539e-09
1.1977e-09
1.1902e-09
1.18285e-09
1.17567e-09
1.16865e-09
1.16178e-09
1.15506e-09
1.14848e-09
1.14204e-09
1.13574e-09
1.12957e-09
1.12351e-09
1.11756e-09
1.11172e-09
1.10598e-09
1.10035e-09
1.09481e-09
1.08938e-09
1.08403e-09
1.07878e-09
1.07361e-09
1.06854e-09
1.06354e-09
1.05864e-09
1.05379e-09
1.04903e-09
1.04433e-09
1.0397e-09
1.03513e-09
1.03064e-09
1.02619e-09
1.02182e-09
1.0175e-09
1.01326e-09
1.00906e-09
1.00494e-09
1.00085e-09
9.96838e-10
9.92859e-10
9.88957e-10
9.85071e-10
9.81261e-10
9.77465e-10
9.73746e-10
9.7004e-10
9.6641e-10
9.62792e-10
9.59251e-10
9.55718e-10
9.52264e-10
9.48815e-10
9.45445e-10
9.42077e-10
9.38787e-10
9.35495e-10
9.32288e-10
9.29081e-10
9.25952e-10
9.2281e-10
9.19743e-10
9.16664e-10
9.13662e-10
9.10646e-10
9.07708e-10
9.04758e-10
9.01884e-10
8.98997e-10
8.96184e-10
8.9336e-10
8.90607e-10
8.87843e-10
8.85151e-10
8.82449e-10
8.79813e-10
8.77169e-10
8.74586e-10
8.72002e-10
8.69471e-10
8.66941e-10
8.64453e-10
8.61973e-10
8.59529e-10
8.57102e-10
8.54702e-10
8.52327e-10
8.49973e-10
8.47655e-10
8.45342e-10
8.43079e-10
8.40805e-10
8.38596e-10
8.36352e-10
8.34213e-10
8.31973e-10
8.2994e-10
8.27634e-10
8.2579e-10
8.23287e-10
8.21806e-10
8.18869e-10
8.18285e-10
8.13995e-10
3.52384e-10
3.49426e-10
3.46506e-10
3.43623e-10
3.40778e-10
3.37969e-10
3.35198e-10
3.32464e-10
3.29765e-10
3.27103e-10
3.24476e-10
3.21885e-10
3.19328e-10
3.16807e-10
3.1432e-10
3.11867e-10
3.09448e-10
3.07063e-10
3.04711e-10
3.02394e-10
3.00109e-10
2.97858e-10
2.95639e-10
2.93453e-10
2.913e-10
2.89179e-10
2.87089e-10
2.85032e-10
2.83006e-10
2.81013e-10
2.79051e-10
2.7712e-10
2.7522e-10
2.73352e-10
2.71514e-10
2.69707e-10
2.67931e-10
2.66184e-10
2.64468e-10
2.62782e-10
2.61126e-10
2.595e-10
2.57904e-10
2.56337e-10
2.54801e-10
2.53293e-10
2.51815e-10
2.50366e-10
2.48946e-10
2.47555e-10
2.46193e-10
2.4486e-10
2.43557e-10
2.42281e-10
2.41036e-10
2.39819e-10
2.38632e-10
2.37473e-10
2.36344e-10
2.35243e-10
2.34172e-10
2.3313e-10
2.32118e-10
2.31135e-10
2.30183e-10
2.2926e-10
2.28371e-10
2.27517e-10
2.2668e-10
2.2587e-10
2.25104e-10
2.24366e-10
2.23664e-10
2.22989e-10
2.22353e-10
2.21743e-10
2.21176e-10
2.20634e-10
2.20138e-10
2.19667e-10
2.19243e-10
2.18845e-10
2.18497e-10
2.18175e-10
2.17906e-10
2.17662e-10
2.17477e-10
2.17315e-10
2.17217e-10
2.1714e-10
2.17136e-10
2.17148e-10
2.17242e-10
2.17348e-10
2.17549e-10
2.17758e-10
2.1808e-10
2.18405e-10
2.18862e-10
2.19314e-10
2.19917e-10
2.20509e-10
2.21268e-10
2.22012e-10
2.22937e-10
2.23838e-10
2.24944e-10
2.26033e-10
2.27351e-10
2.28667e-10
2.30219e-10
2.31796e-10
2.33601e-10
2.35437e-10
2.37527e-10
2.397e-10
2.4213e-10
2.44716e-10
2.47511e-10
2.50509e-10
2.53754e-10
2.57284e-10
2.61101e-10
2.65173e-10
2.69604e-10
2.74431e-10
2.79648e-10
2.85239e-10
2.91392e-10
2.98099e-10
3.0517e-10
3.13271e-10
3.2166e-10
3.31273e-10
3.41413e-10
3.5287e-10
3.65227e-10
3.79061e-10
3.94176e-10
4.11158e-10
4.29885e-10
4.51055e-10
4.74787e-10
5.01824e-10
5.32781e-10
5.6842e-10
6.10255e-10
6.59872e-10
7.19617e-10
7.93293e-10
8.85802e-10
1.00157e-09
1.14521e-09
1.34505e-09
1.73194e-09
2.56887e-09
4.09964e-09
6.29467e-09
8.71818e-09
1.11781e-08
1.33969e-08
1.51679e-08
1.6431e-08
1.709e-08
1.71131e-08
1.67782e-08
1.6313e-08
1.57234e-08
1.50259e-08
1.43089e-08
1.36479e-08
1.30296e-08
1.24711e-08
1.19817e-08
1.15408e-08
1.11433e-08
1.07915e-08
1.0472e-08
1.01782e-08
9.91132e-09
9.66575e-09
9.43775e-09
9.2243e-09
9.02391e-09
8.83706e-09
8.66055e-09
8.49377e-09
8.33498e-09
8.18432e-09
8.04038e-09
7.90295e-09
7.77096e-09
7.64409e-09
7.52177e-09
7.4036e-09
7.28893e-09
7.17717e-09
7.06788e-09
6.96124e-09
6.85679e-09
6.75237e-09
6.64665e-09
6.54149e-09
6.43923e-09
6.34182e-09
6.25007e-09
6.16373e-09
6.0821e-09
6.0045e-09
5.93033e-09
5.85907e-09
5.79041e-09
5.7244e-09
5.66051e-09
5.59845e-09
5.53801e-09
5.47918e-09
5.42191e-09
5.36621e-09
5.31196e-09
5.2592e-09
5.20783e-09
5.15772e-09
5.10888e-09
5.06143e-09
5.01493e-09
4.96939e-09
4.92468e-09
4.88095e-09
4.83806e-09
4.79616e-09
4.75509e-09
4.71497e-09
4.67564e-09
4.63725e-09
4.59951e-09
4.56265e-09
4.52653e-09
4.49116e-09
4.45623e-09
4.42197e-09
4.38816e-09
4.35506e-09
4.32244e-09
4.29053e-09
4.25906e-09
4.22832e-09
4.19799e-09
4.16833e-09
4.13906e-09
4.11045e-09
4.08213e-09
4.05455e-09
4.02724e-09
4.00048e-09
3.97386e-09
3.94783e-09
3.92197e-09
3.89674e-09
3.87169e-09
3.84728e-09
3.823e-09
3.79937e-09
3.77583e-09
3.75293e-09
3.7301e-09
3.70792e-09
3.68581e-09
3.6643e-09
3.64283e-09
3.62205e-09
3.60126e-09
3.58103e-09
3.56072e-09
3.54102e-09
3.52124e-09
3.50209e-09
3.48285e-09
3.46422e-09
3.44551e-09
3.42743e-09
3.40926e-09
3.3917e-09
3.37403e-09
3.35696e-09
3.33975e-09
3.32314e-09
3.30642e-09
3.29029e-09
3.27404e-09
3.25833e-09
3.24256e-09
3.22722e-09
3.21176e-09
3.19676e-09
3.18172e-09
3.1671e-09
3.15247e-09
3.13822e-09
3.12397e-09
3.11006e-09
3.09623e-09
3.08269e-09
3.06928e-09
3.05604e-09
3.04304e-09
3.0301e-09
3.01745e-09
3.00478e-09
2.99259e-09
2.98006e-09
2.96838e-09
2.95582e-09
2.94435e-09
2.93254e-09
2.91793e-09
2.9073e-09
8.15334e-10
8.08563e-10
8.01879e-10
7.95281e-10
7.8877e-10
7.82344e-10
7.76003e-10
7.69747e-10
7.63574e-10
7.57485e-10
7.51478e-10
7.45553e-10
7.39708e-10
7.33943e-10
7.28258e-10
7.22653e-10
7.17125e-10
7.11676e-10
7.06305e-10
7.01012e-10
6.95796e-10
6.90656e-10
6.85593e-10
6.80605e-10
6.75692e-10
6.70854e-10
6.6609e-10
6.614e-10
6.56784e-10
6.52242e-10
6.47773e-10
6.43377e-10
6.39054e-10
6.34801e-10
6.30622e-10
6.26513e-10
6.22475e-10
6.18507e-10
6.1461e-10
6.10782e-10
6.07025e-10
6.03337e-10
5.99719e-10
5.96169e-10
5.92689e-10
5.89276e-10
5.85933e-10
5.82656e-10
5.79449e-10
5.76307e-10
5.73234e-10
5.70227e-10
5.67289e-10
5.64417e-10
5.61616e-10
5.58879e-10
5.56212e-10
5.5361e-10
5.51079e-10
5.48612e-10
5.46216e-10
5.43886e-10
5.41626e-10
5.39433e-10
5.37314e-10
5.3526e-10
5.33286e-10
5.31395e-10
5.29542e-10
5.27749e-10
5.26061e-10
5.24436e-10
5.22899e-10
5.2142e-10
5.20034e-10
5.18707e-10
5.17479e-10
5.1631e-10
5.15246e-10
5.1424e-10
5.13346e-10
5.12507e-10
5.11789e-10
5.11124e-10
5.10589e-10
5.10106e-10
5.09761e-10
5.09467e-10
5.09325e-10
5.09226e-10
5.09302e-10
5.09407e-10
5.09708e-10
5.10027e-10
5.10576e-10
5.11133e-10
5.11962e-10
5.12786e-10
5.13926e-10
5.15044e-10
5.16522e-10
5.17962e-10
5.198e-10
5.21593e-10
5.23815e-10
5.25971e-10
5.28613e-10
5.31206e-10
5.3434e-10
5.37463e-10
5.41138e-10
5.4487e-10
5.49137e-10
5.53474e-10
5.58405e-10
5.63534e-10
5.69259e-10
5.75356e-10
5.81936e-10
5.89e-10
5.96638e-10
6.04952e-10
6.13934e-10
6.23525e-10
6.33948e-10
6.45317e-10
6.5759e-10
6.70757e-10
6.85235e-10
7.0103e-10
7.1767e-10
7.36744e-10
7.56494e-10
7.79123e-10
8.03e-10
8.29978e-10
8.59076e-10
8.91648e-10
9.27245e-10
9.67237e-10
1.01134e-09
1.06121e-09
1.11709e-09
1.18077e-09
1.25368e-09
1.33761e-09
1.43613e-09
1.55294e-09
1.69353e-09
1.86692e-09
2.08827e-09
2.41882e-09
3.19101e-09
5.36419e-09
1.02407e-08
1.84461e-08
2.95243e-08
4.18312e-08
5.27134e-08
6.23954e-08
7.03786e-08
7.63853e-08
8.05368e-08
8.2725e-08
8.29158e-08
8.19453e-08
8.05107e-08
7.86188e-08
7.6297e-08
7.38199e-08
7.14479e-08
6.91565e-08
6.7015e-08
6.50811e-08
6.32859e-08
6.16226e-08
6.01133e-08
5.87102e-08
5.73922e-08
5.617e-08
5.50258e-08
5.3947e-08
5.2922e-08
5.19466e-08
5.10258e-08
5.01461e-08
4.93064e-08
4.84991e-08
4.77262e-08
4.69817e-08
4.62653e-08
4.55722e-08
4.49015e-08
4.42505e-08
4.36178e-08
4.30003e-08
4.23951e-08
4.18002e-08
4.12165e-08
4.06422e-08
4.00659e-08
3.94799e-08
3.88943e-08
3.83224e-08
3.77758e-08
3.72596e-08
3.67731e-08
3.63125e-08
3.58737e-08
3.54534e-08
3.50487e-08
3.46577e-08
3.42808e-08
3.39152e-08
3.3559e-08
3.32111e-08
3.28714e-08
3.25398e-08
3.22164e-08
3.19005e-08
3.15925e-08
3.12918e-08
3.09977e-08
3.07102e-08
3.04302e-08
3.01551e-08
2.98849e-08
2.96188e-08
2.93578e-08
2.91011e-08
2.88498e-08
2.86027e-08
2.83609e-08
2.81231e-08
2.78906e-08
2.76615e-08
2.74371e-08
2.72168e-08
2.70004e-08
2.67862e-08
2.65755e-08
2.63671e-08
2.61626e-08
2.59606e-08
2.57625e-08
2.55668e-08
2.53752e-08
2.51858e-08
2.50001e-08
2.48165e-08
2.46367e-08
2.44582e-08
2.42843e-08
2.41115e-08
2.39419e-08
2.37727e-08
2.36068e-08
2.34417e-08
2.32804e-08
2.31198e-08
2.29631e-08
2.2807e-08
2.26547e-08
2.25027e-08
2.23546e-08
2.22066e-08
2.20627e-08
2.19188e-08
2.17787e-08
2.16386e-08
2.1503e-08
2.1367e-08
2.12345e-08
2.11011e-08
2.09716e-08
2.08413e-08
2.07149e-08
2.05878e-08
2.04645e-08
2.03403e-08
2.02203e-08
2.00994e-08
1.99825e-08
1.98645e-08
1.97505e-08
1.96353e-08
1.95239e-08
1.94116e-08
1.93033e-08
1.91937e-08
1.9088e-08
1.89813e-08
1.88777e-08
1.87726e-08
1.86709e-08
1.85685e-08
1.84691e-08
1.83692e-08
1.82722e-08
1.81746e-08
1.80796e-08
1.79845e-08
1.78919e-08
1.77996e-08
1.77089e-08
1.76193e-08
1.75304e-08
1.74427e-08
1.73558e-08
1.72706e-08
1.71857e-08
1.71023e-08
1.70198e-08
1.69317e-08
1.68646e-08
1.67265e-08
1.6696e-08
1.66289e-09
1.64924e-09
1.63575e-09
1.62245e-09
1.60932e-09
1.59637e-09
1.58358e-09
1.57097e-09
1.55853e-09
1.54626e-09
1.53416e-09
1.52222e-09
1.51045e-09
1.49884e-09
1.48739e-09
1.4761e-09
1.46498e-09
1.45401e-09
1.44321e-09
1.43256e-09
1.42207e-09
1.41173e-09
1.40155e-09
1.39153e-09
1.38166e-09
1.37194e-09
1.36238e-09
1.35296e-09
1.3437e-09
1.33459e-09
1.32563e-09
1.31682e-09
1.30815e-09
1.29964e-09
1.29127e-09
1.28305e-09
1.27497e-09
1.26704e-09
1.25925e-09
1.25161e-09
1.24411e-09
1.23675e-09
1.22954e-09
1.22246e-09
1.21554e-09
1.20874e-09
1.2021e-09
1.19559e-09
1.18922e-09
1.18298e-09
1.17689e-09
1.17094e-09
1.16513e-09
1.15945e-09
1.15392e-09
1.14852e-09
1.14327e-09
1.13815e-09
1.13317e-09
1.12833e-09
1.12364e-09
1.11908e-09
1.11467e-09
1.11039e-09
1.10627e-09
1.10228e-09
1.09845e-09
1.0948e-09
1.09123e-09
1.08777e-09
1.08454e-09
1.08144e-09
1.07851e-09
1.07571e-09
1.0731e-09
1.0706e-09
1.06832e-09
1.06615e-09
1.0642e-09
1.06237e-09
1.06077e-09
1.05928e-09
1.05804e-09
1.05691e-09
1.05605e-09
1.05529e-09
1.05482e-09
1.05444e-09
1.05439e-09
1.05441e-09
1.0548e-09
1.05523e-09
1.05609e-09
1.05695e-09
1.05831e-09
1.05967e-09
1.0616e-09
1.0635e-09
1.06606e-09
1.06856e-09
1.07182e-09
1.07497e-09
1.07896e-09
1.08284e-09
1.08761e-09
1.09223e-09
1.09786e-09
1.10337e-09
1.11e-09
1.1166e-09
1.12434e-09
1.1322e-09
1.14115e-09
1.15025e-09
1.16057e-09
1.1713e-09
1.18326e-09
1.19599e-09
1.20972e-09
1.22446e-09
1.24037e-09
1.2577e-09
1.27641e-09
1.29639e-09
1.31809e-09
1.34178e-09
1.36733e-09
1.39476e-09
1.4249e-09
1.45781e-09
1.49245e-09
1.53218e-09
1.57331e-09
1.62044e-09
1.67019e-09
1.72639e-09
1.78702e-09
1.85488e-09
1.92906e-09
2.01239e-09
2.10432e-09
2.20824e-09
2.32469e-09
2.45745e-09
2.60943e-09
2.78436e-09
2.98969e-09
3.2333e-09
3.52989e-09
3.93373e-09
4.71714e-09
6.96391e-09
1.32391e-08
2.66152e-08
4.82849e-08
7.65785e-08
1.08493e-07
1.39478e-07
1.63596e-07
1.83836e-07
1.99967e-07
2.11902e-07
2.20176e-07
2.24788e-07
2.25727e-07
2.24463e-07
2.22256e-07
2.19122e-07
2.15088e-07
2.10644e-07
2.0627e-07
2.01954e-07
1.97825e-07
1.94025e-07
1.90422e-07
1.87012e-07
1.83859e-07
1.80875e-07
1.78021e-07
1.75326e-07
1.72763e-07
1.70315e-07
1.67958e-07
1.65686e-07
1.63515e-07
1.61419e-07
1.59397e-07
1.57434e-07
1.55537e-07
1.53694e-07
1.51905e-07
1.50161e-07
1.4846e-07
1.46797e-07
1.4517e-07
1.43572e-07
1.41998e-07
1.40441e-07
1.38905e-07
1.37387e-07
1.35861e-07
1.34308e-07
1.32752e-07
1.31223e-07
1.29751e-07
1.28349e-07
1.27018e-07
1.25748e-07
1.24531e-07
1.23361e-07
1.22229e-07
1.21132e-07
1.2007e-07
1.19038e-07
1.18031e-07
1.17045e-07
1.16081e-07
1.15139e-07
1.14218e-07
1.13316e-07
1.12436e-07
1.11575e-07
1.10731e-07
1.09905e-07
1.09099e-07
1.08306e-07
1.07526e-07
1.06758e-07
1.06003e-07
1.0526e-07
1.0453e-07
1.03813e-07
1.03109e-07
1.02416e-07
1.01737e-07
1.01067e-07
1.0041e-07
9.97638e-08
9.91283e-08
9.84986e-08
9.78784e-08
9.72644e-08
9.66608e-08
9.60637e-08
9.54774e-08
9.48972e-08
9.43281e-08
9.37647e-08
9.32117e-08
9.2664e-08
9.21267e-08
9.15928e-08
9.10713e-08
9.05528e-08
9.00431e-08
8.95343e-08
8.90349e-08
8.8537e-08
8.80498e-08
8.75641e-08
8.70894e-08
8.66157e-08
8.6153e-08
8.56904e-08
8.5239e-08
8.47875e-08
8.43474e-08
8.39072e-08
8.34775e-08
8.30477e-08
8.26308e-08
8.22133e-08
8.18057e-08
8.13954e-08
8.0996e-08
8.05939e-08
8.02032e-08
7.98097e-08
7.94274e-08
7.9042e-08
7.86689e-08
7.82926e-08
7.7928e-08
7.75598e-08
7.72033e-08
7.68426e-08
7.64934e-08
7.6141e-08
7.58002e-08
7.54555e-08
7.5122e-08
7.47857e-08
7.44578e-08
7.41259e-08
7.38036e-08
7.3479e-08
7.31633e-08
7.28458e-08
7.25366e-08
7.22258e-08
7.19221e-08
7.16186e-08
7.13216e-08
7.10263e-08
7.07344e-08
7.04472e-08
7.016e-08
6.9879e-08
6.95966e-08
6.93244e-08
6.90457e-08
6.8781e-08
6.85064e-08
6.82308e-08
6.79992e-08
6.75725e-08
6.74453e-08
3.10087e-09
3.07569e-09
3.05083e-09
3.0263e-09
3.0021e-09
2.97822e-09
2.95466e-09
2.93142e-09
2.9085e-09
2.88589e-09
2.86359e-09
2.84161e-09
2.81993e-09
2.79856e-09
2.77748e-09
2.75671e-09
2.73624e-09
2.71606e-09
2.69619e-09
2.67661e-09
2.65732e-09
2.63833e-09
2.61962e-09
2.60121e-09
2.58308e-09
2.56524e-09
2.54769e-09
2.53042e-09
2.51344e-09
2.49673e-09
2.48031e-09
2.46417e-09
2.44831e-09
2.43273e-09
2.41742e-09
2.40239e-09
2.38764e-09
2.37315e-09
2.35894e-09
2.34499e-09
2.33132e-09
2.31792e-09
2.30479e-09
2.29192e-09
2.27933e-09
2.26699e-09
2.25493e-09
2.24312e-09
2.23159e-09
2.22031e-09
2.2093e-09
2.19855e-09
2.18806e-09
2.17784e-09
2.16788e-09
2.15818e-09
2.14876e-09
2.13959e-09
2.13069e-09
2.12205e-09
2.11368e-09
2.10557e-09
2.09774e-09
2.09017e-09
2.08289e-09
2.07586e-09
2.06915e-09
2.06276e-09
2.05651e-09
2.0505e-09
2.04491e-09
2.03956e-09
2.03456e-09
2.02978e-09
2.02537e-09
2.02118e-09
2.01739e-09
2.01382e-09
2.01067e-09
2.00773e-09
2.00525e-09
2.00295e-09
2.00115e-09
1.99953e-09
1.99845e-09
1.99753e-09
1.99718e-09
1.99698e-09
1.99743e-09
1.99798e-09
1.99926e-09
2.00058e-09
2.00273e-09
2.00487e-09
2.00797e-09
2.01102e-09
2.0152e-09
2.01927e-09
2.02464e-09
2.02983e-09
2.0365e-09
2.04292e-09
2.05096e-09
2.05874e-09
2.06823e-09
2.07739e-09
2.08848e-09
2.09932e-09
2.11229e-09
2.12518e-09
2.14022e-09
2.15547e-09
2.17278e-09
2.19036e-09
2.21024e-09
2.23091e-09
2.25386e-09
2.27832e-09
2.3046e-09
2.33286e-09
2.36329e-09
2.39648e-09
2.43221e-09
2.47044e-09
2.51187e-09
2.55716e-09
2.60593e-09
2.65836e-09
2.71589e-09
2.77878e-09
2.84492e-09
2.92084e-09
2.99941e-09
3.08943e-09
3.18451e-09
3.29189e-09
3.40779e-09
3.53746e-09
3.67927e-09
3.83858e-09
4.01434e-09
4.21309e-09
4.4357e-09
4.68966e-09
4.98036e-09
5.31526e-09
5.71197e-09
6.21115e-09
6.97923e-09
8.65755e-09
1.32014e-08
2.4809e-08
4.88599e-08
8.80868e-08
1.40377e-07
2.00124e-07
2.61846e-07
3.17945e-07
3.58133e-07
3.91027e-07
4.16917e-07
4.36078e-07
4.49552e-07
4.57522e-07
4.60002e-07
4.59085e-07
4.56635e-07
4.52697e-07
4.473e-07
4.41149e-07
4.3494e-07
4.28705e-07
4.22618e-07
4.16918e-07
4.11416e-07
4.06112e-07
4.01129e-07
3.96344e-07
3.91699e-07
3.8724e-07
3.82942e-07
3.78795e-07
3.74755e-07
3.70821e-07
3.67027e-07
3.63331e-07
3.59736e-07
3.5622e-07
3.52797e-07
3.49447e-07
3.46175e-07
3.42966e-07
3.39819e-07
3.36725e-07
3.33682e-07
3.3068e-07
3.2771e-07
3.24764e-07
3.21845e-07
3.18949e-07
3.16039e-07
3.13081e-07
3.10112e-07
3.07183e-07
3.04345e-07
3.01623e-07
2.99019e-07
2.96521e-07
2.94117e-07
2.91794e-07
2.89542e-07
2.87354e-07
2.85232e-07
2.83165e-07
2.81146e-07
2.7917e-07
2.77237e-07
2.75344e-07
2.73493e-07
2.71681e-07
2.69909e-07
2.68174e-07
2.66474e-07
2.64808e-07
2.6318e-07
2.61579e-07
2.60004e-07
2.58452e-07
2.56928e-07
2.55426e-07
2.53951e-07
2.525e-07