/*--------------------------------*- C++ -*----------------------------------*\
| =========                 |                                                 |
| \\      /  F ield         | OpenFOAM: The Open Source CFD Toolbox           |
|  \\    /   O peration     | Version:  v1912                                 |
|   \\  /    A nd           | Website:  www.openfoam.com                      |
|    \\/     M anipulation  |                                                 |
\*---------------------------------------------------------------------------*/
FoamFile
{
    version     2.0;
    format      ascii;
    class       volScalarField;
    location    "5000";
    object      omega;
}
// * * * * * * * * * * * * * * * * * * * * * * * * * * * * * * * * * * * * * //

dimensions      [0 0 -1 0 0 0 0];


internalField   nonuniform List<scalar> 
33419
(
18.6993
18.6831
18.6667
18.6503
18.6338
18.6173
18.6007
18.5841
18.5673
18.5506
18.5337
18.5169
18.5
18.4831
18.4661
18.4492
18.4321
18.4152
18.3982
18.3813
18.3642
18.3474
18.3304
18.3136
18.2967
18.2801
18.2633
18.2468
18.2302
18.214
18.1976
18.1817
18.1656
18.15
18.1342
18.119
18.1036
18.0888
18.0739
18.0597
18.0453
18.0316
18.0178
18.0048
17.9917
17.9794
17.9671
17.9557
17.9442
17.9337
17.9232
17.9137
17.9043
17.8959
17.8878
17.8806
17.8738
17.868
17.8627
17.8585
17.8548
17.8523
17.8505
17.8498
17.85
17.8515
17.8542
17.8583
17.8635
17.8702
17.878
17.8876
17.8986
17.9114
17.9257
17.9421
17.9603
17.9807
18.003
18.0279
18.055
18.0848
18.1171
18.1525
18.1906
18.2322
18.2767
18.3252
18.3769
18.433
18.4929
18.5574
18.6263
18.7003
18.7795
18.8644
18.9557
19.0533
19.1587
19.2708
19.3923
19.5209
19.6603
19.8076
19.967
20.1347
20.3168
20.5086
20.7181
20.939
21.18
21.4349
21.7115
22.0027
22.3209
22.6578
23.0263
23.4196
23.8439
24.298
24.7912
25.3245
25.9029
26.5208
27.1977
27.9318
28.7289
29.5871
30.5417
31.5623
32.6872
33.9251
35.2629
36.7614
38.3779
40.1918
42.1694
44.3852
46.8219
49.5543
52.5843
55.9858
59.7979
64.0775
68.9116
74.3602
80.5224
87.4844
95.2966
103.949
113.294
123.003
132.662
141.894
150.48
158.256
165.159
171.066
176.159
180.647
184.589
188.032
191.032
193.628
195.857
197.76
199.362
200.682
201.74
202.569
203.194
203.638
203.934
204.09
204.114
204.027
203.841
203.572
203.221
202.803
202.331
201.815
201.259
200.671
200.056
199.416
198.756
198.077
197.384
196.677
195.958
195.229
194.491
193.745
192.99
192.228
191.459
190.683
189.901
189.111
188.315
187.513
186.708
185.903
185.104
184.312
183.531
182.761
182.005
181.263
180.535
179.822
179.124
178.44
177.771
177.115
176.473
175.843
175.226
174.621
174.028
173.446
172.875
172.315
171.766
171.227
170.697
170.176
169.665
169.16
168.665
168.177
167.698
167.225
166.76
166.302
165.851
165.406
164.969
164.537
164.112
163.691
163.277
162.867
162.464
162.065
161.672
161.282
160.899
160.519
160.146
159.775
159.411
159.049
158.694
158.34
157.992
157.646
157.306
156.967
156.634
156.302
155.977
155.652
155.333
155.015
154.703
154.392
154.087
153.782
153.486
153.191
152.903
152.615
152.332
152.049
151.772
151.494
151.221
150.949
150.682
150.414
150.152
149.89
149.633
149.375
149.123
148.871
148.624
148.377
148.134
147.891
147.653
147.415
147.18
146.947
146.716
146.487
146.26
146.035
145.811
145.592
145.371
145.157
144.939
144.731
144.514
144.313
144.095
143.906
143.679
143.509
143.265
143.12
142.853
142.721
142.424
18.6995
18.6833
18.6669
18.6506
18.634
18.6175
18.6009
18.5843
18.5675
18.5508
18.5339
18.5171
18.5001
18.4833
18.4663
18.4494
18.4323
18.4154
18.3983
18.3814
18.3644
18.3475
18.3305
18.3137
18.2968
18.2802
18.2634
18.2469
18.2303
18.2141
18.1977
18.1817
18.1656
18.15
18.1342
18.119
18.1036
18.0888
18.0739
18.0596
18.0453
18.0316
18.0178
18.0048
17.9917
17.9794
17.9671
17.9556
17.9442
17.9336
17.9231
17.9136
17.9042
17.8958
17.8876
17.8804
17.8736
17.8678
17.8625
17.8583
17.8545
17.8521
17.8502
17.8495
17.8497
17.8512
17.8539
17.858
17.8631
17.8698
17.8776
17.8872
17.8981
17.9109
17.9252
17.9417
17.9598
17.9802
18.0025
18.0274
18.0544
18.0842
18.1165
18.1518
18.1899
18.2314
18.276
18.3244
18.3761
18.4321
18.492
18.5564
18.6253
18.6992
18.7784
18.8632
18.9545
19.052
19.1573
19.2694
19.3908
19.5194
19.6587
19.806
19.9653
20.1328
20.3149
20.5065
20.7159
20.9367
21.1776
21.4323
21.7089
21.9999
22.3179
22.6546
23.0229
23.416
23.8401
24.294
24.7869
25.3199
25.898
26.5156
27.1922
27.9259
28.7226
29.5802
30.5344
31.5545
32.6787
33.9159
35.2529
36.7506
38.3661
40.179
42.1553
44.3697
46.8048
49.5355
52.5632
55.9623
59.7714
64.0477
68.8778
74.3215
80.4784
87.4344
95.2402
103.887
113.229
122.939
132.603
141.844
150.441
158.228
165.143
171.062
176.164
180.659
184.608
188.057
191.063
193.664
195.899
197.806
199.413
200.737
201.799
202.631
203.259
203.705
204.004
204.162
204.186
204.101
203.916
203.648
203.298
202.88
202.408
201.892
201.336
200.748
200.133
199.493
198.832
198.154
197.46
196.752
196.033
195.304
194.565
193.818
193.063
192.301
191.532
190.755
189.972
189.182
188.385
187.582
186.777
185.972
185.172
184.379
183.597
182.827
182.07
181.327
180.598
179.885
179.186
178.501
177.832
177.175
176.532
175.902
175.284
174.678
174.085
173.502
172.932
172.371
171.821
171.281
170.751
170.23
169.718
169.213
168.718
168.229
167.749
167.276
166.811
166.352
165.901
165.456
165.018
164.586
164.161
163.74
163.325
162.915
162.512
162.112
161.719
161.329
160.945
160.565
160.191
159.82
159.456
159.094
158.738
158.384
158.036
157.69
157.35
157.01
156.677
156.345
156.019
155.694
155.375
155.057
154.745
154.434
154.128
153.824
153.527
153.232
152.944
152.655
152.373
152.089
151.812
151.533
151.261
150.988
150.721
150.453
150.191
149.929
149.672
149.414
149.162
148.909
148.662
148.414
148.171
147.929
147.69
147.452
147.217
146.984
146.753
146.524
146.296
146.072
145.848
145.628
145.407
145.193
144.975
144.766
144.549
144.348
144.13
143.941
143.714
143.544
143.299
143.155
142.888
142.756
142.458
18.7
18.6837
18.6673
18.651
18.6344
18.6179
18.6013
18.5846
18.5678
18.5511
18.5342
18.5174
18.5004
18.4836
18.4665
18.4496
18.4325
18.4156
18.3985
18.3816
18.3645
18.3476
18.3306
18.3138
18.2969
18.2802
18.2634
18.2469
18.2303
18.214
18.1976
18.1816
18.1655
18.1499
18.1341
18.1188
18.1034
18.0886
18.0737
18.0594
18.0449
18.0312
18.0174
18.0044
17.9913
17.9789
17.9666
17.9551
17.9436
17.933
17.9225
17.9129
17.9035
17.895
17.8869
17.8796
17.8728
17.867
17.8616
17.8573
17.8535
17.851
17.8491
17.8484
17.8485
17.85
17.8526
17.8567
17.8618
17.8684
17.8762
17.8857
17.8965
17.9093
17.9235
17.9399
17.9579
17.9783
18.0005
18.0253
18.0523
18.082
18.1142
18.1494
18.1874
18.2289
18.2733
18.3216
18.3732
18.4291
18.4889
18.5532
18.6219
18.6957
18.7747
18.8594
18.9505
19.0478
19.153
19.2648
19.386
19.5144
19.6535
19.8004
19.9595
20.1267
20.3085
20.4998
20.7089
20.9292
21.1697
21.4241
21.7002
21.9907
22.3082
22.6443
23.012
23.4045
23.8279
24.2811
24.7732
25.3052
25.8824
26.499
27.1743
27.9068
28.7022
29.5584
30.5108
31.5293
32.6512
33.8866
35.2208
36.716
38.3281
40.1376
42.1099
44.3199
46.7496
49.4744
52.4949
55.886
59.6851
63.9503
68.7672
74.1949
80.3339
87.2697
95.0533
103.68
113.01
122.72
132.398
141.663
150.292
158.111
165.065
171.019
176.147
180.664
184.634
188.102
191.125
193.742
195.992
197.913
199.533
200.868
201.942
202.783
203.419
203.873
204.178
204.341
204.371
204.289
204.108
203.842
203.494
203.077
202.607
202.091
201.535
200.947
200.331
199.691
199.03
198.351
197.656
196.948
196.228
195.497
194.758
194.009
193.253
192.49
191.719
190.941
190.157
189.365
188.567
187.763
186.956
186.149
185.348
184.553
183.769
182.997
182.238
181.493
180.763
180.047
179.347
178.661
177.989
177.331
176.687
176.054
175.435
174.828
174.233
173.649
173.077
172.515
171.964
171.423
170.892
170.369
169.856
169.35
168.853
168.364
167.883
167.409
166.943
166.483
166.031
165.585
165.146
164.713
164.287
163.865
163.45
163.039
162.634
162.234
161.84
161.449
161.065
160.684
160.31
159.938
159.573
159.21
158.854
158.499
158.15
157.803
157.462
157.122
156.789
156.456
156.13
155.804
155.485
155.166
154.853
154.541
154.235
153.93
153.633
153.337
153.049
152.76
152.476
152.193
151.915
151.636
151.363
151.09
150.822
150.554
150.291
150.028
149.771
149.513
149.26
149.007
148.759
148.512
148.268
148.025
147.786
147.548
147.313
147.079
146.847
146.618
146.39
146.165
145.941
145.721
145.5
145.285
145.067
144.858
144.641
144.439
144.22
144.031
143.804
143.633
143.389
143.244
142.976
142.844
142.546
18.7009
18.6846
18.6682
18.6518
18.6352
18.6187
18.602
18.5854
18.5685
18.5518
18.5349
18.518
18.501
18.4841
18.4671
18.4501
18.433
18.4161
18.3989
18.382
18.3649
18.348
18.3309
18.3141
18.2971
18.2804
18.2636
18.2471
18.2304
18.2141
18.1976
18.1816
18.1655
18.1498
18.1339
18.1186
18.1032
18.0883
18.0733
18.059
18.0445
18.0308
18.0169
18.0038
17.9907
17.9783
17.9659
17.9543
17.9428
17.9322
17.9216
17.912
17.9025
17.894
17.8857
17.8784
17.8715
17.8657
17.8602
17.8559
17.852
17.8495
17.8475
17.8467
17.8467
17.8481
17.8506
17.8546
17.8596
17.8661
17.8738
17.8833
17.894
17.9067
17.9208
17.937
17.955
17.9752
17.9973
18.022
18.0488
18.0784
18.1105
18.1456
18.1834
18.2247
18.2689
18.317
18.3685
18.4242
18.4838
18.5479
18.6164
18.6899
18.7687
18.853
18.9439
19.0409
19.1458
19.2572
19.3781
19.506
19.6448
19.7913
19.95
20.1166
20.298
20.4886
20.6972
20.9169
21.1567
21.4103
21.6857
21.9754
22.292
22.6272
22.9939
23.3853
23.8076
24.2595
24.7501
25.2808
25.8563
26.4712
27.1446
27.875
28.6682
29.5218
30.4714
31.4872
32.6052
33.8375
35.167
36.6581
38.2648
40.0687
42.0341
44.2368
46.6576
49.3727
52.3812
55.7592
59.5417
63.7886
68.5838
73.9849
80.0946
86.9971
94.7444
103.339
112.65
122.363
132.065
141.373
150.058
157.935
164.954
170.969
176.143
180.697
184.704
188.204
191.258
193.903
196.179
198.124
199.766
201.123
202.215
203.073
203.724
204.191
204.506
204.679
204.717
204.642
204.466
204.204
203.86
203.445
202.977
202.461
201.906
201.318
200.701
200.06
199.398
198.717
198.021
197.31
196.589
195.856
195.114
194.364
193.605
192.839
192.066
191.286
190.499
189.705
188.905
188.098
187.288
186.479
185.674
184.876
184.089
183.313
182.551
181.802
181.069
180.35
179.646
178.956
178.282
177.62
176.973
176.338
175.716
175.106
174.508
173.922
173.347
172.783
172.229
171.686
171.152
170.627
170.112
169.604
169.106
168.614
168.131
167.655
167.187
166.725
166.272
165.824
165.384
164.949
164.521
164.097
163.681
163.268
162.862
162.46
162.065
161.673
161.287
160.905
160.529
160.156
159.79
159.426
159.068
158.712
158.363
158.014
157.672
157.331
156.996
156.663
156.335
156.008
155.688
155.368
155.054
154.741
154.434
154.128
153.83
153.534
153.244
152.954
152.67
152.385
152.106
151.827
151.553
151.279
151.01
150.741
150.478
150.214
149.956
149.697
149.444
149.19
148.941
148.693
148.449
148.205
147.965
147.726
147.49
147.256
147.024
146.794
146.565
146.34
146.114
145.894
145.672
145.457
145.238
145.029
144.81
144.609
144.389
144.199
143.972
143.8
143.555
143.41
143.141
143.009
142.71
18.7024
18.6862
18.6697
18.6533
18.6367
18.6201
18.6034
18.5867
18.5699
18.5531
18.5361
18.5193
18.5022
18.4853
18.4682
18.4512
18.434
18.417
18.3999
18.3829
18.3657
18.3488
18.3317
18.3148
18.2978
18.281
18.2641
18.2476
18.2308
18.2145
18.198
18.1819
18.1657
18.1499
18.1341
18.1187
18.1032
18.0883
18.0732
18.0588
18.0443
18.0305
18.0166
18.0034
17.9902
17.9777
17.9653
17.9536
17.942
17.9313
17.9207
17.9109
17.9014
17.8928
17.8845
17.8771
17.8701
17.8641
17.8586
17.8542
17.8502
17.8475
17.8455
17.8446
17.8445
17.8458
17.8482
17.852
17.8569
17.8633
17.8709
17.8802
17.8908
17.9033
17.9173
17.9334
17.9511
17.9712
17.9932
18.0176
18.0443
18.0737
18.1056
18.1404
18.1781
18.2191
18.2631
18.311
18.3622
18.4176
18.4769
18.5407
18.6089
18.682
18.7605
18.8445
18.935
19.0315
19.136
19.2469
19.3673
19.4946
19.6329
19.7787
19.9369
20.1028
20.2835
20.4733
20.6811
20.8998
21.1389
21.3914
21.6658
21.9543
22.2698
22.6036
22.9689
23.3588
23.7794
24.2296
24.7183
25.2469
25.8202
26.4328
27.1033
27.831
28.6211
29.4711
30.417
31.429
32.5416
33.7697
35.0928
36.5781
38.1773
39.9735
41.9297
44.1222
46.5309
49.2329
52.225
55.585
59.3449
63.5671
68.3328
73.698
79.7683
86.6263
94.3251
102.877
112.166
121.886
131.628
141
149.769
157.731
164.846
170.951
176.192
180.801
184.861
188.409
191.506
194.192
196.507
198.488
200.163
201.551
202.672
203.555
204.228
204.713
205.044
205.232
205.282
205.216
205.048
204.793
204.453
204.042
203.575
203.061
202.505
201.916
201.299
200.656
199.991
199.308
198.608
197.895
197.17
196.434
195.689
194.934
194.172
193.402
192.625
191.841
191.05
190.252
189.448
188.637
187.822
187.008
186.198
185.395
184.602
183.82
183.053
182.299
181.56
180.835
180.126
179.432
178.752
178.086
177.434
176.794
176.168
175.554
174.952
174.361
173.782
173.214
172.657
172.11
171.573
171.044
170.526
170.015
169.513
169.018
168.532
168.053
167.582
167.117
166.661
166.21
165.767
165.33
164.899
164.473
164.054
163.639
163.231
162.827
162.429
162.034
161.647
161.262
160.885
160.509
160.141
159.775
159.415
159.057
158.706
158.355
158.012
157.669
157.332
156.997
156.667
156.339
156.017
155.695
155.38
155.065
154.757
154.449
154.149
153.851
153.56
153.268
152.983
152.697
152.417
152.136
151.861
151.585
151.315
151.045
150.78
150.515
150.256
149.995
149.741
149.486
149.236
148.987
148.741
148.496
148.255
148.015
147.778
147.543
147.309
147.079
146.849
146.622
146.396
146.174
145.952
145.735
145.515
145.305
145.086
144.883
144.663
144.472
144.243
144.071
143.825
143.679
143.409
143.276
142.976
18.705
18.6887
18.6722
18.6557
18.6391
18.6225
18.6057
18.589
18.5721
18.5553
18.5383
18.5213
18.5042
18.4873
18.4701
18.4531
18.4359
18.4188
18.4016
18.3845
18.3673
18.3503
18.3332
18.3162
18.2991
18.2824
18.2654
18.2488
18.232
18.2156
18.199
18.1828
18.1666
18.1507
18.1348
18.1193
18.1038
18.0888
18.0736
18.0591
18.0446
18.0306
18.0166
18.0034
17.9901
17.9775
17.965
17.9532
17.9416
17.9307
17.92
17.9102
17.9005
17.8918
17.8834
17.8759
17.8688
17.8627
17.857
17.8525
17.8484
17.8456
17.8434
17.8424
17.8422
17.8433
17.8455
17.8492
17.8539
17.8602
17.8676
17.8767
17.8872
17.8995
17.9133
17.9292
17.9468
17.9666
17.9884
18.0126
18.039
18.0682
18.0998
18.1344
18.1718
18.2125
18.2563
18.3038
18.3547
18.4097
18.4687
18.532
18.5999
18.6725
18.7506
18.834
18.9241
19.02
19.124
19.2342
19.3541
19.4806
19.6182
19.7632
19.9207
20.0856
20.2655
20.4543
20.6611
20.8787
21.1166
21.3678
21.6409
21.9279
22.2419
22.5741
22.9375
23.3256
23.7441
24.1922
24.6783
25.2044
25.7749
26.3844
27.0515
27.7757
28.562
29.4075
30.3485
31.3559
32.4617
33.6846
34.9995
36.4778
38.0676
39.8542
41.7989
43.979
46.3727
49.0584
52.0302
55.3682
59.1003
63.2922
68.022
73.3431
79.3657
86.1699
93.8106
102.314
111.579
121.315
131.114
140.578
149.462
157.54
164.782
171.007
176.334
181.013
185.141
188.75
191.903
194.643
197.009
199.038
200.759
202.19
203.349
204.268
204.972
205.484
205.837
206.045
206.113
206.06
205.903
205.656
205.324
204.917
204.453
203.94
203.385
202.794
202.175
201.529
200.862
200.175
199.471
198.753
198.023
197.282
196.532
195.772
195.004
194.229
193.446
192.656
191.86
191.056
190.245
189.428
188.607
187.785
186.968
186.157
185.356
184.567
183.791
183.029
182.283
181.551
180.834
180.132
179.445
178.772
178.114
177.467
176.835
176.214
175.606
175.01
174.425
173.851
173.289
172.736
172.194
171.661
171.137
170.621
170.115
169.616
169.125
168.642
168.167
167.698
167.237
166.783
166.336
165.895
165.46
165.031
164.608
164.19
163.778
163.37
162.969
162.571
162.181
161.793
161.412
161.033
160.662
160.293
159.931
159.57
159.216
158.862
158.516
158.17
157.831
157.493
157.161
156.83
156.506
156.181
155.864
155.547
155.236
154.926
154.623
154.324
154.03
153.737
153.449
153.161
152.878
152.595
152.318
152.041
151.769
151.497
151.231
150.963
150.702
150.44
150.184
149.927
149.676
149.424
149.177
148.93
148.688
148.446
148.207
147.97
147.735
147.503
147.271
147.043
146.816
146.593
146.368
146.151
145.929
145.717
145.497
145.293
145.071
144.879
144.648
144.475
144.227
144.08
143.809
143.675
143.373
18.7088
18.6924
18.6759
18.6594
18.6427
18.6261
18.6092
18.5925
18.5755
18.5586
18.5416
18.5246
18.5075
18.4904
18.4732
18.4561
18.4389
18.4217
18.4044
18.3873
18.3701
18.353
18.3357
18.3188
18.3016
18.2847
18.2677
18.251
18.2341
18.2176
18.201
18.1847
18.1684
18.1524
18.1364
18.1209
18.1052
18.0901
18.0749
18.0603
18.0456
18.0316
18.0175
18.0041
17.9907
17.9781
17.9654
17.9536
17.9418
17.9308
17.92
17.91
17.9003
17.8914
17.8829
17.8752
17.868
17.8618
17.856
17.8513
17.847
17.8441
17.8417
17.8405
17.8401
17.841
17.8431
17.8466
17.8511
17.8572
17.8644
17.8733
17.8836
17.8957
17.9093
17.9249
17.9422
17.9618
17.9833
18.0073
18.0335
18.0623
18.0936
18.1279
18.1649
18.2053
18.2487
18.2958
18.3464
18.4009
18.4595
18.5223
18.5898
18.6618
18.7394
18.8222
18.9117
19.0069
19.1102
19.2197
19.3389
19.4645
19.6014
19.7453
19.9019
20.0657
20.2447
20.4321
20.6378
20.8539
21.0905
21.3401
21.6118
21.897
22.2091
22.5393
22.9005
23.2865
23.7024
24.148
24.631
25.1542
25.7213
26.3273
26.9902
27.7103
28.492
29.3323
30.2675
31.2695
32.3673
33.5842
34.8895
36.3595
37.9384
39.7139
41.6451
43.8108
46.1871
48.854
51.8024
55.1152
58.8151
62.9725
67.6611
72.9322
78.9008
85.6447
93.2206
101.672
110.917
120.681
130.559
140.145
149.175
157.396
164.791
171.154
176.581
181.337
185.541
189.218
192.434
195.236
197.663
199.751
201.529
203.013
204.223
205.187
205.932
206.48
206.862
207.099
207.191
207.156
207.014
206.781
206.46
206.059
205.6
205.089
204.535
203.945
203.324
202.676
202.005
201.314
200.606
199.884
199.148
198.401
197.644
196.878
196.104
195.322
194.532
193.735
192.931
192.12
191.302
190.477
189.648
188.818
187.992
187.171
186.361
185.561
184.776
184.004
183.248
182.506
181.78
181.069
180.373
179.692
179.024
178.37
177.729
177.101
176.485
175.881
175.289
174.708
174.139
173.58
173.031
172.491
171.962
171.44
170.927
170.422
169.926
169.437
168.957
168.483
168.017
167.557
167.105
166.659
166.22
165.786
165.359
164.935
164.519
164.107
163.702
163.3
162.905
162.513
162.128
161.746
161.371
160.998
160.632
160.267
159.91
159.553
159.203
158.854
158.512
158.17
157.835
157.5
157.173
156.845
156.525
156.204
155.891
155.577
155.272
154.969
154.673
154.377
154.087
153.796
153.511
153.225
152.945
152.665
152.391
152.116
151.847
151.578
151.314
151.05
150.791
150.532
150.278
150.024
149.775
149.526
149.282
149.038
148.797
148.558
148.321
148.086
147.853
147.623
147.393
147.168
146.942
146.722
146.499
146.285
146.062
145.857
145.633
145.439
145.207
145.032
144.782
144.634
144.36
144.225
143.92
18.7142
18.6978
18.6812
18.6647
18.648
18.6313
18.6144
18.5976
18.5806
18.5636
18.5465
18.5295
18.5123
18.4952
18.4779
18.4607
18.4434
18.4262
18.4088
18.3917
18.3743
18.3571
18.3398
18.3228
18.3055
18.2886
18.2714
18.2546
18.2377
18.2211
18.2044
18.188
18.1716
18.1555
18.1394
18.1237
18.108
18.0928
18.0775
18.0628
18.048
18.0338
18.0196
18.0061
17.9926
17.9798
17.967
17.955
17.9431
17.932
17.921
17.9109
17.901
17.892
17.8833
17.8755
17.8681
17.8617
17.8558
17.8509
17.8465
17.8434
17.8408
17.8394
17.8388
17.8395
17.8414
17.8447
17.849
17.8548
17.8618
17.8705
17.8805
17.8923
17.9056
17.921
17.9381
17.9573
17.9786
18.0022
18.028
18.0565
18.0875
18.1214
18.1581
18.198
18.241
18.2876
18.3378
18.3918
18.4499
18.5121
18.5791
18.6505
18.7276
18.8095
18.8984
18.9928
19.0954
19.2039
19.3223
19.4469
19.5829
19.7256
19.8813
20.0438
20.2216
20.4076
20.612
20.8264
21.0615
21.3093
21.5792
21.8624
22.1724
22.5003
22.859
23.2425
23.6556
24.0983
24.5779
25.0976
25.6609
26.263
26.9211
27.6365
28.4131
29.2474
30.1762
31.1722
32.2608
33.4711
34.7656
36.2265
37.7932
39.5564
41.4728
43.6227
45.9797
48.6262
51.5488
54.8343
58.4988
62.6189
67.2632
72.4801
78.3913
85.0714
92.5798
100.981
110.212
120.022
130.004
139.737
148.935
157.313
164.868
171.375
176.903
181.732
185.987
189.716
192.987
195.848
198.342
200.498
202.343
203.894
205.17
206.197
206.998
207.597
208.023
208.295
208.416
208.405
208.284
208.068
207.762
207.371
206.919
206.414
205.864
205.274
204.654
204.005
203.333
202.639
201.927
201.2
200.46
199.708
198.945
198.173
197.393
196.604
195.808
195.004
194.193
193.374
192.549
191.716
190.879
190.04
189.204
188.374
187.553
186.743
185.947
185.164
184.397
183.645
182.909
182.188
181.482
180.791
180.114
179.451
178.801
178.164
177.54
176.928
176.328
175.739
175.162
174.596
174.04
173.493
172.956
172.428
171.909
171.397
170.895
170.4
169.913
169.433
168.962
168.497
168.039
167.588
167.143
166.704
166.272
165.844
165.423
165.006
164.596
164.189
163.79
163.393
163.004
162.617
162.238
161.861
161.49
161.122
160.76
160.399
160.045
159.693
159.346
159.001
158.662
158.324
157.993
157.662
157.338
157.014
156.697
156.38
156.072
155.766
155.466
155.167
154.874
154.58
154.292
154.003
153.721
153.438
153.161
152.883
152.611
152.339
152.073
151.806
151.544
151.283
151.026
150.77
150.518
150.267
150.02
149.773
149.53
149.289
149.049
148.812
148.576
148.344
148.112
147.885
147.656
147.435
147.209
146.993
146.769
146.561
146.334
146.139
145.904
145.728
145.475
145.326
145.049
144.914
144.605
18.7217
18.7052
18.6886
18.672
18.6553
18.6385
18.6216
18.6047
18.5876
18.5706
18.5535
18.5364
18.5191
18.5019
18.4846
18.4673
18.4499
18.4327
18.4152
18.398
18.3805
18.3633
18.3459
18.3287
18.3114
18.2943
18.2771
18.2602
18.2432
18.2265
18.2096
18.1932
18.1766
18.1605
18.1442
18.1285
18.1126
18.0973
18.0818
18.067
18.0521
18.0378
18.0235
18.0098
17.9962
17.9832
17.9703
17.9582
17.9461
17.9348
17.9237
17.9134
17.9034
17.8942
17.8853
17.8774
17.8698
17.8632
17.8571
17.852
17.8474
17.8441
17.8413
17.8397
17.8389
17.8393
17.8409
17.844
17.848
17.8536
17.8604
17.8687
17.8785
17.89
17.9031
17.9181
17.9349
17.9538
17.9747
17.9979
18.0234
18.0515
18.0821
18.1155
18.1519
18.1913
18.2339
18.28
18.3297
18.383
18.4407
18.5022
18.5687
18.6393
18.7157
18.7969
18.8851
18.9784
19.0804
19.1878
19.3054
19.4287
19.5638
19.7052
19.8598
20.0208
20.1974
20.3816
20.5847
20.7972
21.0306
21.2764
21.5444
21.8253
22.1331
22.4585
22.8145
23.1952
23.6051
24.0446
24.5204
25.0365
25.5956
26.1933
26.8463
27.5566
28.3276
29.1556
30.0773
31.067
32.1456
33.349
34.6318
36.0831
37.6367
39.3871
41.2878
43.421
45.7579
48.383
51.2788
54.536
58.1635
62.2455
66.8443
72.0058
77.8595
84.4763
91.9189
100.276
109.506
119.378
129.478
139.372
148.741
157.271
164.933
171.529
177.117
181.987
186.272
190.035
193.348
196.261
198.819
201.046
202.962
204.585
205.934
207.032
207.9
208.559
209.038
209.355
209.517
209.539
209.445
209.255
208.972
208.599
208.161
207.668
207.127
206.545
205.931
205.286
204.617
203.925
203.215
202.488
201.747
200.994
200.229
199.455
198.672
197.88
197.08
196.272
195.457
194.635
193.805
192.969
192.127
191.282
190.439
189.601
188.772
187.954
187.149
186.358
185.582
184.821
184.076
183.346
182.632
181.932
181.248
180.577
179.919
179.275
178.644
178.024
177.418
176.822
176.238
175.665
175.103
174.55
174.008
173.474
172.949
172.432
171.924
171.424
170.932
170.447
169.971
169.501
169.039
168.582
168.133
167.69
167.253
166.821
166.396
165.974
165.56
165.15
164.746
164.346
163.953
163.563
163.179
162.799
162.425
162.053
161.688
161.324
160.966
160.61
160.261
159.912
159.57
159.229
158.895
158.561
158.234
157.907
157.587
157.267
156.956
156.647
156.344
156.042
155.746
155.449
155.158
154.867
154.581
154.296
154.016
153.736
153.461
153.186
152.917
152.648
152.384
152.12
151.861
151.602
151.348
151.094
150.844
150.596
150.35
150.106
149.865
149.625
149.387
149.153
148.918
148.689
148.459
148.235
148.007
147.789
147.562
147.353
147.124
146.927
146.69
146.512
146.257
146.107
145.827
145.691
145.379
18.7317
18.7152
18.6986
18.6819
18.6651
18.6483
18.6313
18.6144
18.5973
18.5802
18.563
18.5458
18.5285
18.5112
18.4938
18.4765
18.459
18.4417
18.4242
18.4068
18.3893
18.3719
18.3545
18.3372
18.3198
18.3026
18.2853
18.2683
18.2511
18.2343
18.2174
18.2008
18.1841
18.1679
18.1515
18.1356
18.1196
18.1042
18.0886
18.0736
18.0586
18.0441
18.0297
18.0159
18.0021
17.989
17.9759
17.9636
17.9514
17.9399
17.9287
17.9182
17.908
17.8986
17.8895
17.8814
17.8736
17.8668
17.8605
17.8552
17.8504
17.8468
17.8439
17.842
17.841
17.841
17.8424
17.8452
17.849
17.8543
17.8608
17.8688
17.8783
17.8895
17.9023
17.9169
17.9334
17.9519
17.9725
17.9953
18.0205
18.048
18.0783
18.1112
18.1471
18.186
18.2282
18.2736
18.3228
18.3755
18.4327
18.4935
18.5593
18.6291
18.7049
18.7851
18.8726
18.9649
19.0661
19.1723
19.289
19.411
19.5451
19.685
19.8385
19.9979
20.1732
20.3556
20.5572
20.7678
20.9994
21.243
21.5089
21.7874
22.0928
22.4155
22.7685
23.1464
23.5528
23.9891
24.4609
24.9731
25.5278
26.121
26.7685
27.4736
28.2387
29.0601
29.9745
30.9577
32.0258
33.2224
34.493
35.9348
37.475
39.2125
41.0974
43.214
45.5307
48.1348
51.0038
54.2336
57.8242
61.8696
66.4245
71.5327
77.3327
83.8914
91.2749
99.5977
108.838
118.779
128.998
139.048
148.513
157.107
164.806
171.442
177.059
181.943
186.236
190.017
193.357
196.31
198.923
201.214
203.196
204.889
206.31
207.48
208.417
209.14
209.677
210.044
210.251
210.312
210.252
210.094
209.841
209.491
209.074
208.599
208.074
207.505
206.902
206.268
205.608
204.924
204.22
203.499
202.763
202.013
201.253
200.481
199.7
198.91
198.112
197.306
196.492
195.67
194.841
194.005
193.162
192.317
191.472
190.631
189.798
188.975
188.165
187.369
186.587
185.821
185.07
184.335
183.616
182.911
182.221
181.545
180.883
180.233
179.598
178.974
178.363
177.763
177.175
176.597
176.031
175.475
174.928
174.39
173.862
173.342
172.831
172.327
171.832
171.344
170.864
170.391
169.926
169.466
169.015
168.568
168.129
167.694
167.266
166.842
166.426
166.012
165.607
165.204
164.808
164.416
164.03
163.647
163.271
162.897
162.529
162.163
161.804
161.446
161.094
160.744
160.4
160.057
159.72
159.385
159.056
158.727
158.405
158.084
157.77
157.459
157.155
156.851
156.553
156.254
155.961
155.668
155.381
155.093
154.812
154.529
154.253
153.977
153.706
153.435
153.169
152.903
152.643
152.382
152.126
151.871
151.62
151.37
151.122
150.877
150.634
150.393
150.154
149.918
149.682
149.451
149.219
148.994
148.765
148.546
148.317
148.106
147.876
147.678
147.439
147.261
147.003
146.853
146.57
146.434
146.12
18.7449
18.7284
18.7117
18.695
18.6781
18.6613
18.6442
18.6273
18.6101
18.593
18.5757
18.5584
18.541
18.5237
18.5062
18.4888
18.4713
18.4539
18.4363
18.4188
18.4012
18.3838
18.3662
18.3488
18.3313
18.3141
18.2967
18.2795
18.2623
18.2453
18.2283
18.2116
18.1948
18.1784
18.1619
18.1459
18.1298
18.1142
18.0985
18.0834
18.0682
18.0536
18.039
18.025
18.011
17.9978
17.9846
17.9721
17.9597
17.9481
17.9366
17.9259
17.9155
17.906
17.8967
17.8883
17.8804
17.8734
17.8668
17.8613
17.8563
17.8525
17.8493
17.8472
17.8459
17.8456
17.8467
17.8492
17.8527
17.8577
17.8639
17.8717
17.8808
17.8916
17.9041
17.9184
17.9345
17.9526
17.9728
17.9952
18.02
18.0471
18.077
18.1093
18.1448
18.1831
18.2248
18.2696
18.3183
18.3704
18.4269
18.4869
18.5522
18.6211
18.6962
18.7754
18.8622
18.9534
19.0538
19.1587
19.2745
19.3952
19.5282
19.6666
19.8189
19.9766
20.1506
20.3312
20.5311
20.7397
20.9695
21.2108
21.4747
21.7506
22.0535
22.3735
22.7235
23.0984
23.5013
23.9343
24.4019
24.9104
25.4604
26.0491
26.6911
27.3911
28.1502
28.9651
29.8721
30.8492
31.9067
33.097
34.3555
35.7882
37.3156
39.0408
40.9107
43.0118
45.3096
47.8944
50.7384
53.9435
57.4996
61.5126
66.0286
71.0894
76.8441
83.3538
90.6875
98.9856
108.239
118.242
128.552
138.632
148.093
156.675
164.356
170.988
176.61
181.487
185.769
189.55
192.901
195.877
198.531
200.872
202.908
204.661
206.147
207.382
208.384
209.169
209.762
210.179
210.434
210.537
210.513
210.391
210.171
209.849
209.458
209.005
208.501
207.952
207.366
206.748
206.102
205.432
204.74
204.031
203.305
202.566
201.814
201.051
200.278
199.496
198.705
197.906
197.099
196.283
195.46
194.63
193.793
192.952
192.11
191.272
190.44
189.618
188.808
188.011
187.229
186.462
185.71
184.974
184.254
183.548
182.857
182.179
181.516
180.866
180.229
179.603
178.991
178.39
177.801
177.223
176.656
176.098
175.551
175.013
174.484
173.962
173.451
172.946
172.45
171.962
171.481
171.007
170.542
170.082
169.63
169.182
168.743
168.307
167.879
167.455
167.038
166.624
166.218
165.815
165.419
165.026
164.64
164.256
163.88
163.505
163.138
162.771
162.412
162.053
161.701
161.35
161.006
160.663
160.326
159.99
159.661
159.332
159.01
158.688
158.374
158.062
157.758
157.453
157.154
156.855
156.562
156.268
155.981
155.692
155.41
155.128
154.851
154.574
154.303
154.031
153.765
153.499
153.238
152.977
152.72
152.465
152.213
151.963
151.715
151.469
151.226
150.985
150.745
150.508
150.272
150.041
149.808
149.583
149.353
149.134
148.905
148.694
148.463
148.265
148.025
147.847
147.589
147.438
147.154
147.019
146.704
18.7618
18.7453
18.7286
18.7118
18.6949
18.6781
18.661
18.644
18.6267
18.6096
18.5922
18.575
18.5575
18.5401
18.5226
18.5051
18.4875
18.47
18.4523
18.4348
18.4171
18.3996
18.3819
18.3644
18.3468
18.3295
18.312
18.2947
18.2774
18.2603
18.2432
18.2264
18.2094
18.1929
18.1763
18.1601
18.1439
18.1281
18.1123
18.097
18.0817
18.067
18.0522
18.0381
18.024
18.0105
17.9971
17.9845
17.9719
17.9601
17.9485
17.9376
17.927
17.9172
17.9078
17.8992
17.891
17.8838
17.877
17.8713
17.866
17.8619
17.8585
17.8561
17.8547
17.854
17.8549
17.857
17.8603
17.8649
17.8708
17.8782
17.8871
17.8976
17.9097
17.9236
17.9394
17.9571
17.9769
17.9988
18.0233
18.0499
18.0793
18.1112
18.1462
18.1839
18.2251
18.2693
18.3175
18.3688
18.4248
18.484
18.5487
18.6166
18.6912
18.7693
18.8554
18.9454
19.045
19.1487
19.2636
19.3828
19.5149
19.6517
19.8029
19.9588
20.1315
20.3101
20.5086
20.7151
20.9431
21.1822
21.4439
21.7174
22.0177
22.3352
22.6821
23.0543
23.4536
23.8835
24.347
24.8519
25.3974
25.9818
26.6184
27.3137
28.067
28.8759
29.776
30.7476
31.7949
32.98
34.227
35.6521
37.1677
38.8825
40.7393
42.8272
45.1087
47.6775
50.5004
53.686
57.2127
61.2009
65.6862
70.7095
76.4301
82.9009
90.1922
98.4684
107.726
117.725
127.989
137.993
147.369
155.88
163.496
170.088
175.694
180.546
184.801
188.564
191.907
194.888
197.563
199.936
202.01
203.807
205.343
206.634
207.69
208.529
209.172
209.636
209.935
210.08
210.091
210.004
209.821
209.53
209.167
208.741
208.262
207.736
207.173
206.576
205.949
205.298
204.624
203.931
203.222
202.498
201.761
201.013
200.254
199.485
198.708
197.921
197.126
196.323
195.512
194.694
193.868
193.038