/*--------------------------------*- C++ -*----------------------------------*\
| =========                 |                                                 |
| \\      /  F ield         | OpenFOAM: The Open Source CFD Toolbox           |
|  \\    /   O peration     | Version:  v1912                                 |
|   \\  /    A nd           | Website:  www.openfoam.com                      |
|    \\/     M anipulation  |                                                 |
\*---------------------------------------------------------------------------*/
FoamFile
{
    version     2.0;
    format      ascii;
    class       surfaceScalarField;
    location    "5000";
    object      phi;
}
// * * * * * * * * * * * * * * * * * * * * * * * * * * * * * * * * * * * * * //

dimensions      [0 3 -1 0 0 0 0];
oriented        oriented;


internalField   nonuniform List<scalar> 
66413
(
7.41602e-08
3.61192e-10
7.38014e-08
3.58712e-10
7.34452e-08
3.56251e-10
7.30914e-08
3.53817e-10
7.274e-08
3.51363e-10
7.23911e-08
3.4889e-10
7.20447e-08
3.46426e-10
7.17007e-08
3.43994e-10
7.13591e-08
3.41582e-10
7.10199e-08
3.392e-10
7.06831e-08
3.36833e-10
7.03486e-08
3.34492e-10
7.00164e-08
3.32168e-10
6.96866e-08
3.29874e-10
6.9359e-08
3.27597e-10
6.90336e-08
3.25324e-10
6.87106e-08
3.23016e-10
6.83899e-08
3.20706e-10
6.80715e-08
3.18418e-10
6.77553e-08
3.16159e-10
6.74414e-08
3.13917e-10
6.71297e-08
3.11702e-10
6.68202e-08
3.095e-10
6.65129e-08
3.07319e-10
6.62077e-08
3.05154e-10
6.59047e-08
3.03016e-10
6.56038e-08
3.00894e-10
6.53051e-08
2.98739e-10
6.50085e-08
2.9655e-10
6.47142e-08
2.94383e-10
6.44219e-08
2.92244e-10
6.41318e-08
2.90123e-10
6.38438e-08
2.88026e-10
6.35578e-08
2.85944e-10
6.32739e-08
2.83881e-10
6.29921e-08
2.81835e-10
6.27123e-08
2.79804e-10
6.24345e-08
2.77797e-10
6.21587e-08
2.75785e-10
6.1885e-08
2.73729e-10
6.16133e-08
2.71671e-10
6.13437e-08
2.69631e-10
6.10761e-08
2.67618e-10
6.08105e-08
2.65624e-10
6.05468e-08
2.63648e-10
6.02851e-08
2.61688e-10
6.00254e-08
2.59745e-10
5.97676e-08
2.5782e-10
5.95116e-08
2.5591e-10
5.92576e-08
2.54028e-10
5.90055e-08
2.5211e-10
5.87553e-08
2.50161e-10
5.85071e-08
2.48215e-10
5.82608e-08
2.4629e-10
5.80165e-08
2.44383e-10
5.7774e-08
2.42499e-10
5.75333e-08
2.40626e-10
5.72946e-08
2.38776e-10
5.70576e-08
2.36928e-10
5.68225e-08
2.35108e-10
5.65892e-08
2.33291e-10
5.63577e-08
2.31512e-10
5.6128e-08
2.29673e-10
5.59002e-08
2.27816e-10
5.56743e-08
2.25954e-10
5.54502e-08
2.24119e-10
5.52279e-08
2.22279e-10
5.50074e-08
2.20486e-10
5.47887e-08
2.18691e-10
5.45718e-08
2.16918e-10
5.43566e-08
2.15136e-10
5.41433e-08
2.13384e-10
5.39316e-08
2.1163e-10
5.37217e-08
2.09908e-10
5.35136e-08
2.08135e-10
5.33072e-08
2.0634e-10
5.31027e-08
2.04536e-10
5.29e-08
2.02748e-10
5.2699e-08
2.0095e-10
5.24998e-08
1.9919e-10
5.23024e-08
1.97424e-10
5.21067e-08
1.95673e-10
5.19128e-08
1.93932e-10
5.17206e-08
1.92192e-10
5.15301e-08
1.90468e-10
5.13414e-08
1.88748e-10
5.11544e-08
1.87025e-10
5.09691e-08
1.85236e-10
5.07857e-08
1.8347e-10
5.0604e-08
1.81648e-10
5.04241e-08
1.79868e-10
5.0246e-08
1.78087e-10
5.00697e-08
1.76356e-10
4.98951e-08
1.7459e-10
4.97222e-08
1.72859e-10
4.95512e-08
1.71065e-10
4.93819e-08
1.69297e-10
4.92144e-08
1.67463e-10
4.90488e-08
1.65665e-10
4.8885e-08
1.63768e-10
4.87231e-08
1.6187e-10
4.85632e-08
1.59905e-10
4.84053e-08
1.57932e-10
4.82494e-08
1.55901e-10
4.80954e-08
1.53964e-10
4.79434e-08
1.52009e-10
4.77934e-08
1.50039e-10
4.76454e-08
1.47996e-10
4.74995e-08
1.45863e-10
4.73558e-08
1.43682e-10
4.72144e-08
1.41421e-10
4.70753e-08
1.39064e-10
4.69386e-08
1.36773e-10
4.68041e-08
1.34447e-10
4.66722e-08
1.31908e-10
4.6543e-08
1.29259e-10
4.64166e-08
1.26356e-10
4.62933e-08
1.23324e-10
4.6173e-08
1.20302e-10
4.60558e-08
1.17147e-10
4.59421e-08
1.13722e-10
4.58322e-08
1.09919e-10
4.57263e-08
1.05863e-10
4.56246e-08
1.01737e-10
4.55275e-08
9.71043e-11
4.54356e-08
9.19123e-11
4.53493e-08
8.62846e-11
4.52689e-08
8.0352e-11
4.51956e-08
7.33331e-11
4.51298e-08
6.5811e-11
4.50726e-08
5.72159e-11
4.50251e-08
4.751e-11
4.49887e-08
3.63363e-11
4.49645e-08
2.42348e-11
4.49546e-08
9.8417e-12
4.4962e-08
-7.32528e-12
4.49881e-08
-2.61505e-11
4.50362e-08
-4.80493e-11
4.511e-08
-7.38646e-11
4.52147e-08
-1.04712e-10
4.53555e-08
-1.40802e-10
4.55396e-08
-1.84076e-10
4.5776e-08
-2.36397e-10
4.60756e-08
-2.99592e-10
4.6452e-08
-3.76389e-10
4.69232e-08
-4.71189e-10
4.75123e-08
-5.89132e-10
4.82491e-08
-7.36813e-10
4.91727e-08
-9.23586e-10
5.03352e-08
-1.16245e-09
5.17991e-08
-1.46398e-09
5.36229e-08
-1.8238e-09
5.58383e-08
-2.21537e-09
5.84361e-08
-2.59777e-09
6.13717e-08
-2.93557e-09
6.45779e-08
-3.20622e-09
6.79675e-08
-3.38966e-09
7.14332e-08
-3.46565e-09
7.48917e-08
-3.45846e-09
7.82986e-08
-3.40692e-09
8.16175e-08
-3.31897e-09
8.48122e-08
-3.19468e-09
8.78408e-08
-3.02854e-09
9.06666e-08
-2.82584e-09
9.32626e-08
-2.59605e-09
9.55871e-08
-2.3245e-09
9.76248e-08
-2.03766e-09
9.93968e-08
-1.77196e-09
1.00911e-07
-1.5141e-09
1.02176e-07
-1.26553e-09
1.03223e-07
-1.04684e-09
1.0408e-07
-8.56732e-10
1.04767e-07
-6.86889e-10
1.05311e-07
-5.4421e-10
1.05735e-07
-4.24393e-10
1.06051e-07
-3.1568e-10
1.06276e-07
-2.25145e-10
1.06428e-07
-1.51577e-10
1.06512e-07
-8.38962e-11
1.06536e-07
-2.3773e-11
1.06511e-07
2.49846e-11
1.06444e-07
6.61708e-11
1.06341e-07
1.03013e-10
1.06206e-07
1.34875e-10
1.06043e-07
1.63656e-10
1.05855e-07
1.88121e-10
1.05645e-07
2.09264e-10
1.05417e-07
2.28423e-10
1.05172e-07
2.45282e-10
1.04912e-07
2.60237e-10
1.04638e-07
2.73627e-10
1.04352e-07
2.85432e-10
1.04056e-07
2.96092e-10
1.03751e-07
3.05528e-10
1.03437e-07
3.14235e-10
1.03114e-07
3.22319e-10
1.02785e-07
3.29314e-10
1.02449e-07
3.36124e-10
1.02106e-07
3.42873e-10
1.01757e-07
3.49451e-10
1.01401e-07
3.55034e-10
1.0104e-07
3.61892e-10
1.0067e-07
3.69649e-10
1.00294e-07
3.76242e-10
9.99116e-08
3.8208e-10
9.95259e-08
3.85755e-10
9.91392e-08
3.86695e-10
9.87541e-08
3.85122e-10
9.83727e-08
3.8134e-10
9.79966e-08
3.76108e-10
9.76265e-08
3.70077e-10
9.72629e-08
3.63663e-10
9.69059e-08
3.56943e-10
9.6556e-08
3.49923e-10
9.6213e-08
3.42994e-10
9.58766e-08
3.36361e-10
9.55467e-08
3.29966e-10
9.52229e-08
3.23741e-10
9.49052e-08
3.17678e-10
9.45935e-08
3.11778e-10
9.42875e-08
3.06006e-10
9.39871e-08
3.00358e-10
9.36923e-08
2.94832e-10
9.34027e-08
2.89569e-10
9.31184e-08
2.84324e-10
9.28393e-08
2.79125e-10
9.25649e-08
2.74333e-10
9.22951e-08
2.69886e-10
9.20294e-08
2.65625e-10
9.17679e-08
2.61536e-10
9.15104e-08
2.57541e-10
9.12567e-08
2.53648e-10
9.10068e-08
2.49883e-10
9.07606e-08
2.46205e-10
9.0518e-08
2.42581e-10
9.0279e-08
2.39007e-10
9.00434e-08
2.35613e-10
8.98112e-08
2.32205e-10
8.95824e-08
2.28805e-10
8.93567e-08
2.25709e-10
8.91339e-08
2.22814e-10
8.89138e-08
2.20042e-10
8.86965e-08
2.17364e-10
8.84818e-08
2.14719e-10
8.82697e-08
2.12116e-10
8.80601e-08
2.09569e-10
8.7853e-08
2.07077e-10
8.76484e-08
2.04569e-10
8.74463e-08
2.02122e-10
8.72466e-08
1.99691e-10
8.70493e-08
1.97301e-10
8.68543e-08
1.94995e-10
8.66616e-08
1.9274e-10
8.64712e-08
1.90424e-10
8.62829e-08
1.88259e-10
8.60967e-08
1.8627e-10
8.59123e-08
1.84341e-10
8.57298e-08
1.82492e-10
8.55492e-08
1.80649e-10
8.53703e-08
1.78868e-10
8.51933e-08
1.77044e-10
8.5018e-08
1.75249e-10
8.48446e-08
1.7341e-10
8.4673e-08
1.71571e-10
8.45032e-08
1.69775e-10
8.43352e-08
1.68048e-10
8.41688e-08
1.66374e-10
8.40041e-08
1.64692e-10
8.38411e-08
1.62991e-10
8.36799e-08
1.61294e-10
8.35205e-08
1.59346e-10
8.3363e-08
1.57511e-10
8.3207e-08
1.55968e-10
8.30524e-08
1.54654e-10
8.28991e-08
1.53314e-10
8.27471e-08
1.5198e-10
8.25965e-08
1.50616e-10
8.24473e-08
1.49233e-10
8.22995e-08
1.47733e-10
8.21531e-08
1.46394e-10
8.2008e-08
1.45131e-10
8.18642e-08
1.43803e-10
8.17218e-08
1.42448e-10
8.15806e-08
1.41138e-10
8.14409e-08
1.39741e-10
8.13026e-08
1.38326e-10
8.11656e-08
1.36998e-10
8.10298e-08
1.35829e-10
8.08952e-08
1.34539e-10
8.07619e-08
1.33344e-10
8.06298e-08
1.32066e-10
8.0499e-08
1.30792e-10
8.03696e-08
1.29421e-10
8.02412e-08
1.28382e-10
8.01139e-08
1.27367e-10
7.99874e-08
1.26403e-10
7.98621e-08
1.25306e-10
7.97378e-08
1.24319e-10
7.96147e-08
1.23156e-10
7.94927e-08
1.21992e-10
7.93719e-08
1.20767e-10
7.92521e-08
1.19813e-10
7.91333e-08
1.1877e-10
7.90156e-08
1.17767e-10
7.88989e-08
1.16659e-10
7.87829e-08
1.15985e-10
7.86688e-08
1.14121e-10
7.85544e-08
1.14387e-10
7.84429e-08
1.1152e-10
7.8329e-08
1.13939e-10
7.82205e-08
1.08425e-10
7.81058e-08
1.14686e-10
7.80028e-08
1.03087e-10
7.7885e-08
1.17778e-10
7.78052e-08
7.9766e-11
7.76774e-08
1.27831e-10
1.72785e-10
2.41002e-07
1.53504e-09
2.39837e-07
1.5245e-09
2.38679e-07
1.51403e-09
2.37529e-07
1.50368e-09
2.36387e-07
1.49326e-09
2.35253e-07
1.48276e-09
2.34127e-07
1.47229e-09
2.33009e-07
1.46195e-09
2.31899e-07
1.45171e-09
2.30797e-07
1.44158e-09
2.29702e-07
1.43152e-09
2.28615e-07
1.42157e-09
2.27535e-07
1.41169e-09
2.26463e-07
1.40193e-09
2.25399e-07
1.39226e-09
2.24341e-07
1.38259e-09
2.23292e-07
1.37279e-09
2.22249e-07
1.36298e-09
2.21215e-07
1.35326e-09
2.20187e-07
1.34366e-09
2.19167e-07
1.33414e-09
2.18154e-07
1.32472e-09
2.17148e-07
1.31536e-09
2.16149e-07
1.30608e-09
2.15158e-07
1.29688e-09
2.14173e-07
1.28779e-09
2.13195e-07
1.27877e-09
2.12224e-07
1.26961e-09
2.1126e-07
1.26032e-09
2.10303e-07
1.25111e-09
2.09354e-07
1.24202e-09
2.08411e-07
1.23301e-09
2.07475e-07
1.2241e-09
2.06545e-07
1.21525e-09
2.05623e-07
1.20648e-09
2.04707e-07
1.19777e-09
2.03798e-07
1.18915e-09
2.02895e-07
1.18061e-09
2.01998e-07
1.17206e-09
2.01109e-07
1.16334e-09
2.00226e-07
1.15459e-09
1.9935e-07
1.14592e-09
1.9848e-07
1.13737e-09
1.97617e-07
1.12889e-09
1.9676e-07
1.12049e-09
1.95909e-07
1.11216e-09
1.95065e-07
1.1039e-09
1.94227e-07
1.09571e-09
1.93396e-07
1.0876e-09
1.9257e-07
1.07959e-09
1.91751e-07
1.07145e-09
1.90938e-07
1.06317e-09
1.90131e-07
1.0549e-09
1.89331e-07
1.04672e-09
1.88536e-07
1.03862e-09
1.87748e-07
1.03061e-09
1.86966e-07
1.02266e-09
1.8619e-07
1.01478e-09
1.8542e-07
1.00693e-09
1.84656e-07
9.99183e-10
1.83898e-07
9.91481e-10
1.83146e-07
9.83893e-10
1.82399e-07
9.76097e-10
1.81659e-07
9.68201e-10
1.80924e-07
9.60306e-10
1.80196e-07
9.52486e-10
1.79474e-07
9.44687e-10
1.78757e-07
9.37052e-10
1.78046e-07
9.29435e-10
1.77341e-07
9.21885e-10
1.76642e-07
9.14331e-10
1.75949e-07
9.06857e-10
1.75261e-07
8.99422e-10
1.74579e-07
8.92081e-10
1.73902e-07
8.84567e-10
1.73232e-07
8.7692e-10
1.72567e-07
8.69276e-10
1.71908e-07
8.61659e-10
1.71255e-07
8.54046e-10
1.70608e-07
8.46537e-10
1.69966e-07
8.39059e-10
1.6933e-07
8.31603e-10
1.687e-07
8.24208e-10
1.68075e-07
8.16807e-10
1.67456e-07
8.09478e-10
1.66843e-07
8.02171e-10
1.66235e-07
7.9485e-10
1.65633e-07
7.87259e-10
1.65037e-07
7.79748e-10
1.64446e-07
7.72023e-10
1.63862e-07
7.64458e-10
1.63283e-07
7.56897e-10
1.6271e-07
7.49528e-10
1.62142e-07
7.4203e-10
1.6158e-07
7.34667e-10
1.61024e-07
7.27043e-10
1.60474e-07
7.19516e-10
1.5993e-07
7.11735e-10
1.59392e-07
7.04076e-10
1.58859e-07
6.96044e-10
1.58333e-07
6.87958e-10
1.57813e-07
6.79649e-10
1.573e-07
6.71249e-10
1.56793e-07
6.62658e-10
1.56293e-07
6.54401e-10
1.55799e-07
6.46124e-10
1.55311e-07
6.37711e-10
1.5483e-07
6.29063e-10
1.54356e-07
6.19977e-10
1.53889e-07
6.10747e-10
1.53429e-07
6.01103e-10
1.52977e-07
5.91152e-10
1.52532e-07
5.81383e-10
1.52095e-07
5.71542e-10
1.51667e-07
5.6071e-10
1.51246e-07
5.49507e-10
1.50836e-07
5.37138e-10
1.50435e-07
5.24336e-10
1.50043e-07
5.11449e-10
1.49662e-07
4.98089e-10
1.49293e-07
4.83496e-10
1.48935e-07
4.6737e-10
1.48591e-07
4.5017e-10
1.4826e-07
4.32629e-10
1.47944e-07
4.12939e-10
1.47645e-07
3.90908e-10
1.47364e-07
3.67008e-10
1.47103e-07
3.41778e-10
1.46864e-07
3.11943e-10
1.4665e-07
2.80064e-10
1.46464e-07
2.43464e-10
1.46309e-07
2.0231e-10
1.46191e-07
1.54785e-10
1.46112e-07
1.03404e-10
1.46079e-07
4.19536e-11
1.46103e-07
-3.10334e-11
1.46188e-07
-1.10587e-10
1.46343e-07
-2.0395e-10
1.46583e-07
-3.13693e-10
1.46923e-07
-4.44842e-10
1.47381e-07
-5.98341e-10
1.47979e-07
-7.82401e-10
1.48748e-07
-1.00491e-09
1.49722e-07
-1.27374e-09
1.50946e-07
-1.60046e-09
1.52479e-07
-2.00376e-09
1.54395e-07
-2.50568e-09
1.56793e-07
-3.13421e-09
1.59798e-07
-3.92929e-09
1.63582e-07
-4.94631e-09
1.68348e-07
-6.23001e-09
1.74285e-07
-7.76121e-09
1.81496e-07
-9.42635e-09
1.8995e-07
-1.10514e-08
1.99501e-07
-1.24862e-08
2.09929e-07
-1.36349e-08
2.20952e-07
-1.44128e-08
2.32221e-07
-1.47343e-08
2.43464e-07
-1.47019e-08
2.54538e-07
-1.44801e-08
2.65321e-07
-1.41022e-08
2.75695e-07
-1.35692e-08
2.85525e-07
-1.28583e-08
2.94695e-07
-1.19953e-08
3.03112e-07
-1.10136e-08
3.10647e-07
-9.85888e-09
3.17256e-07
-8.64678e-09
3.23004e-07
-7.5206e-09
3.27916e-07
-6.42592e-09
3.32023e-07
-5.37251e-09
3.35422e-07
-4.44608e-09
3.38205e-07
-3.63977e-09
3.40438e-07
-2.91926e-09
3.42208e-07
-2.31402e-09
3.43589e-07
-1.8054e-09
3.44616e-07
-1.34323e-09
3.4535e-07
-9.59235e-10
3.45845e-07
-6.46546e-10
3.4612e-07
-3.58419e-10
3.46199e-07
-1.03145e-10
3.4612e-07
1.04476e-10
3.45906e-07
2.7952e-10
3.45573e-07
4.36016e-10
3.45136e-07
5.71887e-10
3.44606e-07
6.94048e-10
3.43996e-07
7.9821e-10
3.43317e-07
8.88265e-10
3.42575e-07
9.6975e-10
3.41779e-07
1.04152e-09
3.40934e-07
1.10517e-09
3.40046e-07
1.16213e-09
3.39119e-07
1.2124e-09
3.38157e-07
1.25773e-09
3.37165e-07
1.29793e-09
3.36144e-07
1.33496e-09
3.35097e-07
1.3693e-09
3.34027e-07
1.39918e-09
3.32935e-07
1.42803e-09
3.31821e-07
1.45689e-09
3.30686e-07
1.48471e-09
3.29532e-07
1.50875e-09
3.28356e-07
1.53799e-09
3.27155e-07
1.57087e-09
3.25932e-07
1.59909e-09
3.2469e-07
1.62374e-09
3.23437e-07
1.63928e-09
3.2218e-07
1.64322e-09
3.20929e-07
1.63644e-09
3.1969e-07
1.62037e-09
3.18468e-07
1.59818e-09
3.17265e-07
1.57258e-09
3.16084e-07
1.54539e-09
3.14924e-07
1.51686e-09
3.13787e-07
1.48702e-09
3.12672e-07
1.45759e-09
3.11579e-07
1.42942e-09
3.10507e-07
1.40225e-09
3.09455e-07
1.37579e-09
3.08422e-07
1.35005e-09
3.07409e-07
1.32496e-09
3.06415e-07
1.30047e-09
3.05439e-07
1.27644e-09
3.0448e-07
1.25297e-09
3.0354e-07
1.23055e-09
3.02616e-07
1.20833e-09
3.01708e-07
1.18621e-09
3.00817e-07
1.16585e-09
2.9994e-07
1.14693e-09
2.99077e-07
1.12886e-09
2.98227e-07
1.11146e-09
2.9739e-07
1.09451e-09
2.96565e-07
1.07799e-09
2.95753e-07
1.06195e-09
2.94953e-07
1.04632e-09
2.94165e-07
1.03091e-09
2.93388e-07
1.01573e-09
2.92623e-07
1.00132e-09
2.91868e-07
9.86851e-10
2.91124e-07
9.72415e-10
2.90391e-07
9.59163e-10
2.89667e-07
9.46917e-10
2.88952e-07
9.35129e-10
2.88245e-07
9.23751e-10
2.87547e-07
9.1248e-10
2.86858e-07
9.01446e-10
2.86177e-07
8.90596e-10
2.85504e-07
8.80025e-10
2.84839e-07
8.69368e-10
2.84182e-07
8.58986e-10
2.83534e-07
8.48585e-10
2.82892e-07
8.38464e-10
2.82259e-07
8.28666e-10
2.81632e-07
8.19091e-10
2.81014e-07
8.09237e-10
2.80402e-07
8.00056e-10
2.79796e-07
7.91587e-10
2.79197e-07
7.83434e-10
2.78604e-07
7.75522e-10
2.78017e-07
7.67743e-10
2.77436e-07
7.60118e-10
2.76861e-07
7.52415e-10
2.76291e-07
7.4472e-10
2.75728e-07
7.36967e-10
2.7517e-07
7.29116e-10
2.74618e-07
7.21527e-10
2.74072e-07
7.14157e-10
2.73532e-07
7.07031e-10
2.72996e-07
6.99854e-10
2.72467e-07
6.92683e-10
2.71943e-07
6.8541e-10
2.71425e-07
6.77182e-10
2.70913e-07
6.69331e-10
2.70406e-07
6.62871e-10
2.69903e-07
6.57225e-10
2.69405e-07
6.51532e-10
2.68911e-07
6.45824e-10
2.68422e-07
6.40057e-10
2.67937e-07
6.3416e-10
2.67457e-07
6.27825e-10
2.66981e-07
6.22162e-10
2.66509e-07
6.16698e-10
2.66042e-07
6.11152e-10
2.65579e-07
6.05253e-10
2.65121e-07
5.99794e-10
2.64667e-07
5.93821e-10
2.64217e-07
5.87823e-10
2.63772e-07
5.82197e-10
2.6333e-07
5.77233e-10
2.62893e-07
5.71698e-10
2.6246e-07
5.66672e-10
2.62031e-07
5.61173e-10
2.61606e-07
5.5588e-10
2.61185e-07
5.49932e-10
2.60768e-07
5.45611e-10
2.60354e-07
5.41254e-10
2.59943e-07
5.37256e-10
2.59536e-07
5.32521e-10
2.59132e-07
5.2832e-10
2.58732e-07
5.23319e-10
2.58335e-07
5.18493e-10
2.57943e-07
5.13078e-10
2.57554e-07
5.09261e-10
2.57168e-07
5.0461e-10
2.56785e-07
5.00564e-10
2.56406e-07
4.95669e-10
2.56029e-07
4.92918e-10
2.55658e-07
4.84829e-10
2.55286e-07
4.86305e-10
2.54924e-07
4.73566e-10
2.54554e-07
4.84726e-10
2.54202e-07
4.59917e-10
2.53828e-07
4.88933e-10
2.53495e-07
4.35598e-10
2.53108e-07
5.04668e-10
2.52854e-07
3.33717e-10
2.52427e-07
5.55212e-10
7.03934e-10
4.38686e-07
3.67182e-09
4.36564e-07
3.64658e-09
4.34456e-07
3.62156e-09
4.32363e-07
3.59678e-09
4.30285e-07
3.57187e-09
4.28221e-07
3.54676e-09
4.26171e-07
3.52174e-09
4.24136e-07
3.49701e-09
4.22115e-07
3.47251e-09
4.20109e-07
3.44827e-09
4.18116e-07
3.42422e-09
4.16137e-07
3.4004e-09
4.14172e-07
3.37677e-09
4.1222e-07
3.35342e-09
4.10282e-07
3.33027e-09
4.08358e-07
3.30715e-09
4.06447e-07
3.28373e-09
4.0455e-07
3.26027e-09
4.02666e-07
3.23703e-09
4.00796e-07
3.21405e-09
3.98938e-07
3.19129e-09
3.97094e-07
3.16874e-09
3.95263e-07
3.14636e-09
3.93445e-07
3.12416e-09
3.9164e-07
3.10214e-09
3.89847e-07
3.08038e-09
3.88067e-07
3.0588e-09
3.863e-07
3.03691e-09
3.84546e-07
3.0147e-09
3.82804e-07
2.99269e-09
3.81075e-07
2.97094e-09
3.79359e-07
2.94939e-09
3.77655e-07
2.92806e-09
3.75963e-07
2.90689e-09
3.74284e-07
2.88591e-09
3.72616e-07
2.86509e-09
3.70961e-07
2.84444e-09
3.69318e-07
2.82401e-09
3.67686e-07
2.80356e-09
3.66067e-07
2.78271e-09
3.6446e-07
2.76179e-09
3.62865e-07
2.74107e-09
3.61281e-07
2.7206e-09
3.5971e-07
2.70033e-09
3.5815e-07
2.68025e-09
3.56602e-07
2.66031e-09
3.55065e-07
2.64055e-09
3.5354e-07
2.62095e-09
3.52026e-07
2.60154e-09
3.50523e-07
2.58237e-09
3.49032e-07
2.56291e-09
3.47552e-07
2.54311e-09
3.46084e-07
2.52336e-09
3.44626e-07
2.50379e-09
3.43181e-07
2.48441e-09
3.41746e-07
2.46525e-09
3.40322e-07
2.44622e-09
3.3891e-07
2.42736e-09
3.37508e-07
2.40861e-09
3.36117e-07
2.39005e-09
3.34737e-07
2.37163e-09
3.33368e-07
2.35346e-09
3.32009e-07
2.33484e-09
3.30661e-07
2.31595e-09
3.29324e-07
2.29708e-09
3.27998e-07
2.27836e-09
3.26683e-07
2.25974e-09
3.25379e-07
2.24145e-09
3.24085e-07
2.22325e-09
3.22802e-07
2.20516e-09
3.21529e-07
2.1871e-09
3.20267e-07
2.1692e-09
3.19015e-07
2.15143e-09
3.17773e-07
2.13385e-09
3.16542e-07
2.11589e-09
3.15321e-07
2.0976e-09
3.14111e-07
2.07934e-09
3.12912e-07
2.0611e-09
3.11723e-07
2.04292e-09
3.10544e-07
2.02494e-09
3.09376e-07
2.00707e-09
3.08219e-07
1.98923e-09
3.07071e-07
1.97154e-09
3.05934e-07
1.95382e-09
3.04807e-07
1.9363e-09
3.03691e-07
1.91881e-09
3.02584e-07
1.90131e-09
3.01488e-07
1.88316e-09
3.00403e-07
1.8652e-09
2.99328e-07
1.84674e-09
2.98264e-07
1.82865e-09
2.9721e-07
1.81057e-09
2.96167e-07
1.79294e-09
2.95134e-07
1.77501e-09
2.94111e-07
1.75739e-09
2.93099e-07
1.73916e-09
2.92098e-07
1.72114e-09
2.91107e-07
1.70254e-09
2.90127e-07
1.68419e-09
2.89158e-07
1.66502e-09
2.882e-07
1.64567e-09
2.87254e-07
1.62585e-09
2.86319e-07
1.60575e-09
2.85397e-07
1.58526e-09
2.84486e-07
1.56548e-09
2.83586e-07
1.54571e-09
2.82698e-07
1.52556e-09
2.81822e-07
1.50491e-09
2.80959e-07
1.48314e-09
2.80109e-07
1.46112e-09
2.79272e-07
1.43802e-09
2.78449e-07
1.41432e-09
2.77639e-07
1.39091e-09
2.76843e-07
1.36741e-09
2.76062e-07
1.34147e-09
2.75297e-07
1.31476e-09
2.74549e-07
1.28514e-09
2.73819e-07
1.25466e-09
2.73107e-07
1.22379e-09
2.72413e-07
1.19187e-09
2.71739e-07
1.15693e-09
2.71088e-07
1.11842e-09
2.70461e-07
1.07735e-09
2.69858e-07
1.03537e-09
2.69283e-07
9.88271e-10
2.68738e-07
9.35624e-10
2.68227e-07
8.78539e-10
2.6775e-07
8.18148e-10
2.67316e-07
7.46804e-10
2.66925e-07
6.70678e-10
2.66585e-07
5.83057e-10
2.66303e-07
4.84712e-10
2.66087e-07
3.7104e-10
2.65942e-07
2.48169e-10
2.65883e-07
1.00717e-10
2.65926e-07
-7.38672e-11
2.66079e-07
-2.63409e-10
2.66362e-07
-4.87182e-10
2.66798e-07
-7.49805e-10
2.67417e-07
-1.06355e-09
2.68249e-07
-1.43092e-09
2.69338e-07
-1.8714e-09
2.70737e-07
-2.40386e-09
2.72511e-07
-3.0473e-09
2.7474e-07
-3.82934e-09
2.77531e-07
-4.79472e-09
2.81021e-07
-5.99632e-09
2.85388e-07
-7.5012e-09
2.90864e-07
-9.40509e-09
2.97759e-07
-1.18407e-08
3.06443e-07
-1.49147e-08
3.17262e-07
-1.85803e-08
3.30401e-07
-2.25648e-08
3.45801e-07
-2.64519e-08
3.63198e-07
-2.98829e-08
3.82192e-07
-3.26284e-08
4.02266e-07
-3.44872e-08
4.22786e-07
-3.52546e-08
4.43259e-07
-3.51744e-08
4.63418e-07
-3.4639e-08
4.83043e-07
-3.3727e-08
5.01916e-07
-3.24429e-08
5.19792e-07
-3.07341e-08
5.36463e-07
-2.86661e-08
5.51759e-07
-2.63092e-08
5.65446e-07
-2.35467e-08
5.77459e-07
-2.06596e-08
5.87911e-07
-1.79721e-08
5.96841e-07
-1.53564e-08
6.04311e-07
-1.28421e-08
6.10496e-07
-1.06315e-08
6.15562e-07
-8.70599e-09
6.19628e-07
-6.98484e-09
6.22853e-07
-5.53905e-09
6.25371e-07
-4.3233e-09
6.27245e-07
-3.21766e-09
6.28586e-07
-2.30014e-09
6.29492e-07
-1.55206e-09
6.29995e-07
-8.61949e-10
6.30144e-07
-2.51498e-10
6.30002e-07
2.45859e-10
6.29617e-07
6.647e-10
6.29014e-07
1.03904e-09
6.28221e-07
1.36479e-09
6.27258e-07
1.6569e-09
6.2615e-07
1.90643e-09
6.24916e-07
2.12227e-09
6.23568e-07
2.31737e-09
6.22121e-07
2.48929e-09
6.20584e-07
2.64177e-09
6.18968e-07
2.77813e-09
6.17282e-07
2.89856e-09
6.15533e-07
3.00707e-09
6.13727e-07
3.10338e-09
6.1187e-07
3.19201e-09
6.09965e-07
3.27416e-09
6.08019e-07
3.34591e-09
6.06032e-07
3.41489e-09
6.04004e-07
3.48409e-09
6.01939e-07
3.55049e-09
5.99839e-07
3.6085e-09
5.97698e-07
3.67869e-09
5.95512e-07
3.75726e-09
5.93286e-07
3.82505e-09
5.91026e-07
3.88378e-09
5.88744e-07
3.92079e-09
5.86457e-07
3.9302e-09
5.8418e-07
3.91389e-09
5.81925e-07
3.87545e-09
5.79701e-07
3.82244e-09
5.77512e-07
3.76124e-09
5.75361e-07
3.69625e-09
5.7325e-07
3.62805e-09
5.7118e-07
3.55677e-09
5.69151e-07
3.48643e-09
5.67162e-07
3.41908e-09
5.6521e-07
3.3541e-09
5.63295e-07
3.2908e-09
5.61416e-07
3.22926e-09
5.59571e-07
3.16921e-09
5.57761e-07
3.11068e-09
5.55984e-07
3.05321e-09
5.5424e-07
2.99707e-09
5.52527e-07
2.94343e-09
5.50845e-07
2.89028e-09
5.49194e-07
2.8374e-09
5.47571e-07
2.78872e-09
5.45975e-07
2.74346e-09
5.44403e-07
2.70023e-09
5.42856e-07
2.6586e-09
5.41333e-07
2.61804e-09
5.39832e-07
2.57853e-09
5.38354e-07
2.54019e-09
5.36898e-07
2.50273e-09
5.35463e-07
2.46591e-09
5.34049e-07
2.42957e-09
5.32655e-07
2.39514e-09
5.31281e-07
2.36046e-09
5.29928e-07
2.32599e-09
5.28593e-07
2.2943e-09
5.27275e-07
2.26504e-09
5.25973e-07
2.23681e-09
5.24687e-07
2.2096e-09
5.23417e-07
2.18265e-09
5.22162e-07
2.15622e-09
5.20922e-07
2.13031e-09
5.19697e-07
2.10498e-09
5.18487e-07
2.07949e-09
5.17292e-07
2.05461e-09
5.1611e-07
2.02977e-09
5.14943e-07
2.00559e-09
5.1379e-07
1.9821e-09
5.1265e-07
1.95919e-09
5.11523e-07
1.93566e-09
5.1041e-07
1.91375e-09
5.09308e-07
1.89342e-09
5.08217e-07
1.87392e-09
5.07138e-07
1.85503e-09
5.06069e-07
1.83637e-09
5.05011e-07
1.81813e-09
5.03964e-07
1.79977e-09
5.02927e-07
1.78132e-09
5.01901e-07
1.76276e-09
5.00887e-07
1.74397e-09
4.99882e-07
1.72586e-09
4.98888e-07
1.70816e-09
4.97904e-07
1.6912e-09
4.9693e-07
1.67398e-09
4.95966e-07
1.65686e-09
4.95012e-07
1.6394e-09
4.94069e-07
1.61977e-09
4.93137e-07
1.60101e-09
4.92215e-07
1.58554e-09
4.913e-07
1.57203e-09
4.90393e-07
1.55842e-09
4.89494e-07
1.54476e-09
4.88603e-07
1.53096e-09
4.87721e-07
1.51685e-09
4.86847e-07
1.50173e-09
4.85981e-07
1.48824e-09
4.85122e-07
1.47509e-09
4.84272e-07
1.46182e-09
4.83429e-07
1.44778e-09
4.82594e-07
1.43466e-09
4.81768e-07
1.42033e-09
4.80949e-07
1.4061e-09
4.80139e-07
1.39254e-09
4.79336e-07
1.3807e-09
4.7854e-07
1.36743e-09
4.77751e-07
1.35548e-09
4.7697e-07
1.34222e-09
4.76196e-07
1.32964e-09
4.75431e-07
1.31534e-09
4.74671e-07
1.30515e-09
4.73918e-07
1.29456e-09
4.7317e-07
1.28513e-09
4.72429e-07
1.27361e-09
4.71694e-07
1.26373e-09
4.70965e-07
1.25164e-09
4.70244e-07
1.24029e-09
4.69529e-07
1.22727e-09
4.6882e-07
1.21819e-09
4.68118e-07
1.20674e-09
4.67421e-07
1.19734e-09
4.66732e-07
1.18544e-09
4.66045e-07
1.17912e-09
4.65371e-07
1.1595e-09
4.64694e-07
1.1633e-09
4.64035e-07
1.1324e-09
4.6336e-07
1.15988e-09
4.62721e-07
1.09921e-09
4.62038e-07
1.17107e-09
4.61434e-07
1.03962e-09
4.60727e-07
1.21159e-09
4.60267e-07
7.94564e-10
4.59482e-07
1.33983e-09
1.64113e-09
6.71709e-07
6.94363e-09
6.6846e-07
6.89589e-09
6.65233e-07
6.84856e-09
6.62028e-07
6.80169e-09
6.58845e-07
6.75461e-09
6.55685e-07
6.70715e-09
6.52547e-07
6.65986e-09
6.49431e-07
6.6131e-09
6.46337e-07
6.56677e-09
6.43264e-07
6.52093e-09
6.40213e-07
6.47545e-09
6.37183e-07
6.43039e-09
6.34174e-07
6.38572e-09
6.31186e-07
6.34154e-09
6.28218e-07
6.29776e-09
6.25271e-07
6.25402e-09
6.22345e-07
6.20977e-09
6.1944e-07
6.16542e-09
6.16556e-07
6.1215e-09
6.13692e-07
6.07805e-09
6.10848e-07
6.03499e-09
6.08024e-07
5.99234e-09
6.05221e-07
5.95002e-09
6.02437e-07
5.90803e-09
5.99672e-07
5.86638e-09
5.96928e-07
5.82521e-09
5.94202e-07
5.78439e-09
5.91496e-07
5.74302e-09
5.8881e-07
5.70105e-09
5.86143e-07
5.65944e-09
5.83495e-07
5.61831e-09
5.80867e-07
5.57757e-09
5.78258e-07
5.53723e-09
5.75668e-07
5.49719e-09
5.73096e-07
5.4575e-09
5.70543e-07
5.41812e-09
5.68009e-07
5.37906e-09
5.65492e-07
5.34042e-09
5.62994e-07
5.30173e-09
5.60514e-07
5.26235e-09
5.58053e-07
5.22281e-09
5.55611e-07
5.18364e-09
5.53186e-07
5.14494e-09
5.5078e-07
5.10659e-09
5.48392e-07
5.06862e-09
5.46021e-07
5.03091e-09
5.43668e-07
4.99353e-09
5.41333e-07
4.95645e-09
5.39015e-07
4.91973e-09
5.36713e-07
4.88346e-09
5.3443e-07
4.84667e-09
5.32164e-07
4.80926e-09
5.29915e-07
4.77193e-09
5.27684e-07
4.73492e-09
5.2547e-07
4.69828e-09
5.23273e-07
4.66204e-09
5.21093e-07
4.62606e-09
5.1893e-07
4.59038e-09
5.16784e-07
4.55492e-09
5.14654e-07
4.5198e-09
5.12541e-07
4.48496e-09
5.10444e-07
4.45057e-09
5.08363e-07
4.41539e-09
5.06299e-07
4.37968e-09
5.04253e-07
4.34404e-09
5.02222e-07
4.30863e-09
5.00209e-07
4.27343e-09
4.98211e-07
4.23882e-09
4.9623e-07
4.20441e-09
4.94265e-07
4.17018e-09
4.92316e-07
4.13603e-09
4.90383e-07
4.10216e-09
4.88466e-07
4.06856e-09
4.86565e-07
4.03527e-09
4.84679e-07
4.00136e-09
4.8281e-07
3.96676e-09
4.80957e-07
3.93227e-09
4.7912e-07
3.89778e-09
4.773e-07
3.86343e-09
4.75495e-07
3.82939e-09
4.73707e-07
3.79561e-09
4.71934e-07
3.76185e-09
4.70177e-07
3.72842e-09
4.68436e-07
3.69491e-09
4.66711e-07
3.66178e-09
4.65001e-07
3.62868e-09
4.63307e-07
3.5956e-09
4.61629e-07
3.5613e-09
4.59966e-07
3.52735e-09
4.58321e-07
3.49248e-09
4.56691e-07
3.45827e-09
4.55077e-07
3.4241e-09
4.5348e-07
3.39075e-09
4.51898e-07
3.35684e-09
4.50332e-07
3.32349e-09
4.48782e-07
3.28904e-09
4.47248e-07
3.25493e-09
4.45731e-07
3.21979e-09
4.4423e-07
3.18507e-09
4.42746e-07
3.14886e-09
4.41279e-07
3.11228e-09
4.3983e-07
3.07486e-09
4.38399e-07
3.03686e-09
4.36986e-07
2.9982e-09
4.35591e-07
2.96077e-09
4.34213e-07
2.92343e-09
4.32854e-07
2.88528e-09
4.31512e-07
2.84627e-09
4.3019e-07
2.80508e-09
4.28888e-07
2.76353e-09
4.27606e-07
2.7198e-09
4.26345e-07
2.67512e-09
4.25105e-07
2.63082e-09
4.23886e-07
2.58645e-09
4.22691e-07
2.53735e-09
4.21518e-07
2.48693e-09
4.20373e-07
2.43093e-09
4.19254e-07
2.37348e-09
4.18163e-07
2.31508e-09
4.171e-07
2.25476e-09
4.16068e-07
2.18866e-09
4.1507e-07
2.11594e-09
4.14109e-07
2.03841e-09
4.13186e-07
1.95901e-09
4.12304e-07
1.86994e-09
4.11469e-07
1.77048e-09
4.10685e-07
1.66266e-09
4.09955e-07
1.54838e-09
4.09288e-07
1.41355e-09
4.08689e-07
1.26976e-09
4.08168e-07
1.104e-09
4.07735e-07
9.18175e-10
4.07402e-07
7.03286e-10
4.0718e-07
4.70928e-10
4.07089e-07
1.91273e-10
4.07154e-07
-1.38754e-10
4.07386e-07
-4.95985e-10
4.07819e-07
-9.19767e-10
4.08486e-07
-1.41661e-09
4.09432e-07
-2.00996e-09
4.10706e-07
-2.70502e-09
4.12373e-07
-3.53825e-09
4.14515e-07
-4.54542e-09
4.1723e-07
-5.76281e-09
4.20643e-07
-7.24242e-09
4.24918e-07
-9.06888e-09
4.30264e-07
-1.13426e-08
4.36953e-07
-1.41904e-08
4.45341e-07
-1.77936e-08
4.55904e-07
-2.24034e-08
4.6921e-07
-2.82209e-08
4.85787e-07
-3.51567e-08
5.05916e-07
-4.26937e-08
5.29509e-07
-5.00449e-08
5.56158e-07
-5.65323e-08
5.85252e-07
-6.17222e-08
6.16001e-07
-6.52361e-08
6.47433e-07
-6.66866e-08
6.7879e-07
-6.6531e-08
7.09661e-07
-6.55101e-08
7.39705e-07
-6.37717e-08
7.68589e-07
-6.13268e-08
7.95937e-07
-5.80815e-08
8.21434e-07
-5.41635e-08
8.44817e-07
-4.9692e-08
8.65739e-07
-4.44691e-08
8.8411e-07
-3.90305e-08
9.00098e-07
-3.39601e-08
9.13761e-07
-2.90194e-08
9.25193e-07
-2.42742e-08
9.34665e-07
-2.01031e-08
9.42426e-07
-1.64673e-08
9.48658e-07
-1.32164e-08
9.53604e-07
-1.04852e-08
9.57468e-07
-8.18725e-09
9.60346e-07
-6.09619e-09
9.62408e-07
-4.36213e-09
9.63803e-07
-2.94711e-09
9.64582e-07
-1.64043e-09
9.64816e-07
-4.85835e-10
9.64606e-07
4.56101e-10
9.64022e-07
1.24871e-09
9.63104e-07
1.95676e-09
9.61895e-07
2.57406e-09
9.60425e-07
3.12653e-09
9.58732e-07
3.59915e-09
9.56847e-07
4.00818e-09
9.54786e-07
4.37754e-09
9.52572e-07
4.70316e-09
9.50222e-07
4.99191e-09
9.4775e-07
5.25006e-09
9.45171e-07
5.47816e-09
9.42494e-07
5.68359e-09
9.39732e-07
5.86599e-09
9.3689e-07
6.03377e-09
9.33975e-07
6.18919e-09
9.30995e-07
6.32533e-09
9.27954e-07
6.45581e-09
9.24852e-07
6.58687e-09
9.2169e-07
6.71237e-09
9.18475e-07
6.82287e-09
9.15198e-07
6.95597e-09
9.11851e-07
7.10452e-09
9.08443e-07
7.23316e-09
9.04983e-07
7.34389e-09
9.0149e-07
7.41371e-09
8.97988e-07
7.43153e-09
8.94502e-07
7.4005e-09
8.91049e-07
7.32787e-09
8.87644e-07
7.22782e-09
8.84293e-07
7.11224e-09
8.81e-07
6.98942e-09
8.77767e-07
6.86056e-09
8.74598e-07
6.72586e-09
8.71492e-07
6.59297e-09
8.68445e-07
6.46564e-09
8.65456e-07
6.34282e-09
8.62524e-07
6.22315e-09
8.59647e-07
6.10678e-09
8.56823e-07
5.99321e-09
8.54051e-07
5.88258e-09
8.5133e-07
5.77388e-09
8.48659e-07
5.66773e-09
8.46037e-07
5.56627e-09
8.43461e-07
5.46577e-09
8.40933e-07
5.36582e-09
8.38448e-07
5.27375e-09
8.36003e-07
5.18815e-09
8.33597e-07
5.10638e-09
8.31228e-07
5.02764e-09
8.28895e-07
4.95098e-09
8.26597e-07
4.87624e-09
8.24334e-07
4.80372e-09
8.22103e-07
4.73287e-09
8.19906e-07
4.66321e-09
8.17741e-07
4.59451e-09
8.15607e-07
4.52935e-09
8.13504e-07
4.46379e-09
8.11431e-07
4.39867e-09
8.09387e-07
4.33868e-09
8.07368e-07
4.28341e-09
8.05375e-07
4.22995e-09
8.03406e-07
4.17854e-09
8.01461e-07
4.12753e-09
7.9954e-07
4.07755e-09
7.97642e-07
4.02853e-09
7.95766e-07
3.9806e-09
7.93913e-07
3.93241e-09
7.92082e-07
3.88541e-09
7.90274e-07
3.83842e-09
7.88487e-07
3.79271e-09
7.8672e-07
3.74825e-09
7.84975e-07
3.70492e-09
7.8325e-07
3.66045e-09
7.81545e-07
3.61903e-09
7.79858e-07
3.58051e-09
7.78188e-07
3.54369e-09
7.76535e-07
3.50797e-09
7.74898e-07
3.47273e-09
7.73278e-07
3.43816e-09
7.71675e-07
3.40348e-09
7.70088e-07
3.36853e-09
7.68517e-07
3.33346e-09
7.66963e-07
3.29795e-09
7.65425e-07
3.26369e-09
7.63903e-07
3.23016e-09