/*--------------------------------*- C++ -*----------------------------------*\
| =========                 |                                                 |
| \\      /  F ield         | OpenFOAM: The Open Source CFD Toolbox           |
|  \\    /   O peration     | Version:  v1912                                 |
|   \\  /    A nd           | Website:  www.openfoam.com                      |
|    \\/     M anipulation  |                                                 |
\*---------------------------------------------------------------------------*/
FoamFile
{
    version     2.0;
    format      ascii;
    class       volVectorField;
    location    "5000";
    object      U;
}
// * * * * * * * * * * * * * * * * * * * * * * * * * * * * * * * * * * * * * //

dimensions      [0 1 -1 0 0 0 0];


internalField   nonuniform List<vector> 
33419
(
(0.0365478 4.02071e-07 0)
(0.0363709 3.95201e-07 0)
(0.0361951 3.88431e-07 0)
(0.0360206 3.81812e-07 0)
(0.0358472 3.75241e-07 0)
(0.0356751 3.68752e-07 0)
(0.0355042 3.62355e-07 0)
(0.0353345 3.56108e-07 0)
(0.035166 3.49954e-07 0)
(0.0349986 3.43934e-07 0)
(0.0348324 3.38005e-07 0)
(0.0346674 3.32203e-07 0)
(0.0345035 3.26483e-07 0)
(0.0343408 3.20894e-07 0)
(0.0341792 3.15387e-07 0)
(0.0340187 3.09974e-07 0)
(0.0338593 3.04584e-07 0)
(0.0337011 2.99289e-07 0)
(0.033544 2.94077e-07 0)
(0.033388 2.88977e-07 0)
(0.0332331 2.8397e-07 0)
(0.0330793 2.7906e-07 0)
(0.0329266 2.74232e-07 0)
(0.032775 2.6949e-07 0)
(0.0326245 2.6483e-07 0)
(0.032475 2.60265e-07 0)
(0.0323265 2.5578e-07 0)
(0.0321791 2.51326e-07 0)
(0.0320328 2.46896e-07 0)
(0.0318875 2.42564e-07 0)
(0.0317433 2.38311e-07 0)
(0.0316002 2.34143e-07 0)
(0.0314581 2.30056e-07 0)
(0.031317 2.26038e-07 0)
(0.0311769 2.22096e-07 0)
(0.0310379 2.18214e-07 0)
(0.0308998 2.14413e-07 0)
(0.0307627 2.10681e-07 0)
(0.0306267 2.06995e-07 0)
(0.0304916 2.03329e-07 0)
(0.0303575 1.99709e-07 0)
(0.0302245 1.96171e-07 0)
(0.0300924 1.92689e-07 0)
(0.0299613 1.89276e-07 0)
(0.0298312 1.85935e-07 0)
(0.0297021 1.82649e-07 0)
(0.0295739 1.7942e-07 0)
(0.0294467 1.76257e-07 0)
(0.0293204 1.73144e-07 0)
(0.0291951 1.70112e-07 0)
(0.0290707 1.6707e-07 0)
(0.0289472 1.64071e-07 0)
(0.0288247 1.6111e-07 0)
(0.0287031 1.58214e-07 0)
(0.0285825 1.55358e-07 0)
(0.0284628 1.52575e-07 0)
(0.0283441 1.49837e-07 0)
(0.0282262 1.47156e-07 0)
(0.0281093 1.445e-07 0)
(0.0279933 1.41923e-07 0)
(0.0278781 1.3936e-07 0)
(0.0277639 1.3689e-07 0)
(0.0276505 1.34387e-07 0)
(0.027538 1.31929e-07 0)
(0.0274265 1.29487e-07 0)
(0.0273159 1.27124e-07 0)
(0.0272062 1.24759e-07 0)
(0.0270973 1.22496e-07 0)
(0.0269894 1.20222e-07 0)
(0.0268823 1.18042e-07 0)
(0.0267761 1.15845e-07 0)
(0.0266707 1.13745e-07 0)
(0.0265663 1.1162e-07 0)
(0.0264626 1.09588e-07 0)
(0.0263599 1.07529e-07 0)
(0.026258 1.05513e-07 0)
(0.026157 1.03484e-07 0)
(0.0260569 1.01547e-07 0)
(0.0259577 9.95881e-08 0)
(0.0258593 9.77154e-08 0)
(0.0257618 9.58285e-08 0)
(0.0256652 9.40168e-08 0)
(0.0255694 9.22101e-08 0)
(0.0254745 9.04392e-08 0)
(0.0253805 8.86989e-08 0)
(0.0252872 8.70015e-08 0)
(0.0251949 8.53156e-08 0)
(0.0251033 8.36199e-08 0)
(0.0250128 8.19683e-08 0)
(0.0249229 8.03153e-08 0)
(0.0248342 7.87203e-08 0)
(0.024746 7.71199e-08 0)
(0.024659 7.55847e-08 0)
(0.0245726 7.40506e-08 0)
(0.0244874 7.25701e-08 0)
(0.0244027 7.10668e-08 0)
(0.0243192 6.96189e-08 0)
(0.0242362 6.81385e-08 0)
(0.0241545 6.67317e-08 0)
(0.0240733 6.52702e-08 0)
(0.0239935 6.38546e-08 0)
(0.0239142 6.24125e-08 0)
(0.0238363 6.10198e-08 0)
(0.0237589 5.95862e-08 0)
(0.023683 5.8258e-08 0)
(0.0236075 5.69071e-08 0)
(0.0235335 5.56053e-08 0)
(0.02346 5.42692e-08 0)
(0.023388 5.29506e-08 0)
(0.0233166 5.15932e-08 0)
(0.0232467 5.02856e-08 0)
(0.0231776 4.89014e-08 0)
(0.0231099 4.76267e-08 0)
(0.0230431 4.63046e-08 0)
(0.0229777 4.49953e-08 0)
(0.0229134 4.35985e-08 0)
(0.0228506 4.22118e-08 0)
(0.0227892 4.0729e-08 0)
(0.0227294 3.93452e-08 0)
(0.0226709 3.78951e-08 0)
(0.0226142 3.64291e-08 0)
(0.0225591 3.483e-08 0)
(0.0225061 3.31923e-08 0)
(0.0224551 3.15722e-08 0)
(0.0224061 2.98226e-08 0)
(0.0223596 2.79385e-08 0)
(0.0223157 2.59417e-08 0)
(0.0222748 2.39249e-08 0)
(0.0222367 2.16174e-08 0)
(0.0222027 1.91737e-08 0)
(0.022172 1.6532e-08 0)
(0.0221465 1.35604e-08 0)
(0.0221253 1.02869e-08 0)
(0.0221108 6.78015e-09 0)
(0.0221015 2.82838e-09 0)
(0.0221012 -1.86867e-09 0)
(0.0221088 -7.09622e-09 0)
(0.0221269 -1.27447e-08 0)
(0.0221561 -1.94373e-08 0)
(0.0221996 -2.72892e-08 0)
(0.0222592 -3.63198e-08 0)
(0.0223381 -4.69471e-08 0)
(0.0224403 -5.96425e-08 0)
(0.0225707 -7.47687e-08 0)
(0.022735 -9.28707e-08 0)
(0.022941 -1.14947e-07 0)
(0.0231986 -1.42054e-07 0)
(0.0235206 -1.75562e-07 0)
(0.0239235 -2.17377e-07 0)
(0.0244292 -2.70179e-07 0)
(0.0250671 -3.36233e-07 0)
(0.0258695 -4.1463e-07 0)
(0.0268614 -4.9957e-07 0)
(0.0280489 -5.8172e-07 0)
(0.0294167 -6.52814e-07 0)
(0.0309363 -7.08075e-07 0)
(0.03257 -7.43461e-07 0)
(0.0342695 -7.54488e-07 0)
(0.0359777 -7.46709e-07 0)
(0.0376701 -7.29258e-07 0)
(0.0393276 -7.04683e-07 0)
(0.0409333 -6.72872e-07 0)
(0.0424686 -6.33309e-07 0)
(0.0439102 -5.85772e-07 0)
(0.0452471 -5.34868e-07 0)
(0.046462 -4.75655e-07 0)
(0.0475313 -4.11912e-07 0)
(0.0484653 -3.54667e-07 0)
(0.049273 -3.00653e-07 0)
(0.0499532 -2.48731e-07 0)
(0.0505168 -2.034e-07 0)
(0.0509821 -1.64765e-07 0)
(0.0513587 -1.30764e-07 0)
(0.0516571 -1.02422e-07 0)
(0.0518935 -7.90687e-08 0)
(0.0520742 -5.84316e-08 0)
(0.0522035 -4.11119e-08 0)
(0.0522955 -2.75183e-08 0)
(0.0523524 -1.54028e-08 0)
(0.0523777 -4.54396e-09 0)
(0.0523758 3.94507e-09 0)
(0.052353 1.09518e-08 0)
(0.0523106 1.71934e-08 0)
(0.0522516 2.22433e-08 0)
(0.0521778 2.68823e-08 0)
(0.0520907 3.06122e-08 0)
(0.0519928 3.37135e-08 0)
(0.0518849 3.64388e-08 0)
(0.0517682 3.8749e-08 0)
(0.0516437 4.07002e-08 0)
(0.0515122 4.23634e-08 0)
(0.0513746 4.37327e-08 0)
(0.0512315 4.49145e-08 0)
(0.0510834 4.58796e-08 0)
(0.0509311 4.6692e-08 0)
(0.0507744 4.74274e-08 0)
(0.0506142 4.7929e-08 0)
(0.0504506 4.84422e-08 0)
(0.0502837 4.88702e-08 0)
(0.0501134 4.93325e-08 0)
(0.0499401 4.95572e-08 0)
(0.0497642 4.99579e-08 0)
(0.0495842 5.05318e-08 0)
(0.0494008 5.088e-08 0)
(0.0492142 5.11892e-08 0)
(0.0490251 5.11797e-08 0)
(0.0488349 5.08043e-08 0)
(0.0486449 5.01195e-08 0)
(0.0484563 4.91346e-08 0)
(0.0482699 4.79687e-08 0)
(0.0480865 4.67167e-08 0)
(0.0479061 4.54287e-08 0)
(0.0477289 4.4129e-08 0)
(0.0475551 4.28198e-08 0)
(0.0473848 4.15339e-08 0)
(0.0472178 4.03114e-08 0)
(0.0470541 3.91398e-08 0)
(0.0468934 3.79986e-08 0)
(0.0467358 3.68996e-08 0)
(0.0465811 3.58443e-08 0)
(0.0464293 3.48122e-08 0)
(0.0462802 3.3826e-08 0)
(0.046134 3.28513e-08 0)
(0.0459903 3.19373e-08 0)
(0.0458493 3.10347e-08 0)
(0.0457107 3.01457e-08 0)
(0.0455748 2.93185e-08 0)
(0.045441 2.85503e-08 0)
(0.0453095 2.78016e-08 0)
(0.0451798 2.70963e-08 0)
(0.0450524 2.64067e-08 0)
(0.0449266 2.5736e-08 0)
(0.044803 2.50912e-08 0)
(0.0446809 2.44697e-08 0)
(0.0445609 2.38543e-08 0)
(0.0444424 2.32643e-08 0)
(0.0443259 2.26922e-08 0)
(0.0442107 2.21397e-08 0)
(0.0440976 2.1579e-08 0)
(0.0439857 2.10719e-08 0)
(0.0438757 2.05864e-08 0)
(0.0437666 2.01246e-08 0)
(0.0436593 1.96702e-08 0)
(0.0435529 1.92273e-08 0)
(0.0434482 1.87998e-08 0)
(0.0433443 1.83813e-08 0)
(0.0432422 1.79747e-08 0)
(0.0431407 1.75791e-08 0)
(0.043041 1.71862e-08 0)
(0.042942 1.68092e-08 0)
(0.0428447 1.6433e-08 0)
(0.042748 1.60734e-08 0)
(0.042653 1.57202e-08 0)
(0.0425585 1.53805e-08 0)
(0.0424658 1.50398e-08 0)
(0.0423734 1.4727e-08 0)
(0.0422826 1.44203e-08 0)
(0.0421921 1.41375e-08 0)
(0.0421032 1.38418e-08 0)
(0.0420145 1.35647e-08 0)
(0.0419273 1.32864e-08 0)
(0.0418404 1.3019e-08 0)
(0.041755 1.27486e-08 0)
(0.0416698 1.24896e-08 0)
(0.0415864 1.22241e-08 0)
(0.0415029 1.19788e-08 0)
(0.0414211 1.17316e-08 0)
(0.0413393 1.15003e-08 0)
(0.0412592 1.12594e-08 0)
(0.041179 1.10308e-08 0)
(0.0411007 1.07854e-08 0)
(0.0410223 1.05455e-08 0)
(0.0409458 1.03405e-08 0)
(0.040869 1.01507e-08 0)
(0.0407937 9.95293e-09 0)
(0.0407182 9.75935e-09 0)
(0.0406443 9.58432e-09 0)
(0.0405701 9.38913e-09 0)
(0.0404976 9.19973e-09 0)
(0.0404249 9.02601e-09 0)
(0.0403537 8.85434e-09 0)
(0.0402822 8.68169e-09 0)
(0.0402123 8.50995e-09 0)
(0.0401421 8.34967e-09 0)
(0.0400735 8.17713e-09 0)
(0.0400047 8.00891e-09 0)
(0.0399375 7.86128e-09 0)
(0.03987 7.69947e-09 0)
(0.0398039 7.5548e-09 0)
(0.0397378 7.40655e-09 0)
(0.0396728 7.2622e-09 0)
(0.0396079 7.11762e-09 0)
(0.0395442 6.96984e-09 0)
(0.0394807 6.83861e-09 0)
(0.0394179 6.7212e-09 0)
(0.0393555 6.59118e-09 0)
(0.0392936 6.47837e-09 0)
(0.0392323 6.34713e-09 0)
(0.0391713 6.24087e-09 0)
(0.0391113 6.10234e-09 0)
(0.0390513 5.99613e-09 0)
(0.0389926 5.86253e-09 0)
(0.0389334 5.77629e-09 0)
(0.0388759 5.6493e-09 0)
(0.0388176 5.5589e-09 0)
(0.0387613 5.44344e-09 0)
(0.0387034 5.3362e-09 0)
(0.0386492 5.24807e-09 0)
(0.0385908 5.11308e-09 0)
(0.0385399 5.09278e-09 0)
(0.0384783 4.92697e-09 0)
(0.0384341 4.93811e-09 0)
(0.0383641 4.731e-09 0)
(0.0383349 4.73383e-09 0)
(0.0382448 3.96089e-09 0)
(0.0382626 4.35131e-09 0)
(0.0381082 7.0344e-09 0)
(0.111882 6.77851e-06 0)
(0.11134 6.66247e-06 0)
(0.110802 6.54846e-06 0)
(0.110268 6.43659e-06 0)
(0.109737 6.326e-06 0)
(0.10921 6.21665e-06 0)
(0.108687 6.10902e-06 0)
(0.108168 6.00353e-06 0)
(0.107652 5.8999e-06 0)
(0.107139 5.79829e-06 0)
(0.106631 5.69841e-06 0)
(0.106125 5.6004e-06 0)
(0.105624 5.50409e-06 0)
(0.105125 5.40964e-06 0)
(0.104631 5.31688e-06 0)
(0.104139 5.22546e-06 0)
(0.103651 5.13484e-06 0)
(0.103167 5.04553e-06 0)
(0.102686 4.95782e-06 0)
(0.102209 4.87183e-06 0)
(0.101734 4.78739e-06 0)
(0.101264 4.70453e-06 0)
(0.100796 4.62309e-06 0)
(0.100332 4.54313e-06 0)
(0.0998711 4.46455e-06 0)
(0.0994134 4.38751e-06 0)
(0.098959 4.31183e-06 0)
(0.0985077 4.23675e-06 0)
(0.0980597 4.16231e-06 0)
(0.097615 4.08925e-06 0)
(0.0971736 4.01762e-06 0)
(0.0967353 3.94732e-06 0)
(0.0963002 3.87835e-06 0)
(0.0958683 3.81057e-06 0)
(0.0954395 3.74403e-06 0)
(0.0950138 3.67867e-06 0)
(0.0945911 3.61448e-06 0)
(0.0941715 3.5515e-06 0)
(0.0937549 3.48938e-06 0)
(0.0933414 3.42767e-06 0)
(0.092931 3.36675e-06 0)
(0.0925236 3.307e-06 0)
(0.0921193 3.24841e-06 0)
(0.091718 3.19093e-06 0)
(0.0913198 3.13452e-06 0)
(0.0909244 3.07911e-06 0)
(0.090532 3.0247e-06 0)
(0.0901425 2.97128e-06 0)
(0.089756 2.91885e-06 0)
(0.0893722 2.86745e-06 0)
(0.0889913 2.81645e-06 0)
(0.0886133 2.76583e-06 0)
(0.0882383 2.716e-06 0)
(0.0878661 2.66712e-06 0)
(0.0874969 2.61915e-06 0)
(0.0871305 2.57213e-06 0)
(0.086767 2.52594e-06 0)
(0.0864062 2.48062e-06 0)
(0.0860482 2.43603e-06 0)
(0.085693 2.39235e-06 0)
(0.0853405 2.34939e-06 0)
(0.0849907 2.30737e-06 0)
(0.0846437 2.26545e-06 0)
(0.0842994 2.22392e-06 0)
(0.0839579 2.183e-06 0)
(0.0836192 2.1429e-06 0)
(0.0832833 2.10339e-06 0)
(0.0829501 2.06487e-06 0)
(0.0826196 2.02694e-06 0)
(0.0822917 1.98975e-06 0)
(0.0819667 1.95305e-06 0)
(0.0816441 1.91715e-06 0)
(0.0813244 1.88176e-06 0)
(0.0810071 1.84718e-06 0)
(0.0806926 1.81269e-06 0)
(0.0803805 1.77848e-06 0)
(0.0800715 1.74475e-06 0)
(0.0797648 1.71163e-06 0)
(0.0794612 1.67898e-06 0)
(0.0791599 1.64706e-06 0)
(0.0788616 1.61563e-06 0)
(0.0785656 1.58477e-06 0)
(0.0782726 1.55446e-06 0)
(0.0779818 1.52461e-06 0)
(0.0776941 1.49533e-06 0)
(0.0774085 1.46654e-06 0)
(0.0771259 1.43816e-06 0)
(0.0768455 1.4097e-06 0)
(0.0765683 1.38184e-06 0)
(0.0762932 1.35402e-06 0)
(0.0760215 1.32691e-06 0)
(0.0757518 1.30023e-06 0)
(0.0754854 1.27427e-06 0)
(0.0752209 1.24851e-06 0)
(0.0749599 1.22336e-06 0)
(0.0747005 1.19818e-06 0)
(0.0744449 1.17354e-06 0)
(0.0741909 1.14886e-06 0)
(0.0739408 1.12477e-06 0)
(0.0736923 1.10046e-06 0)
(0.0734478 1.07644e-06 0)
(0.073205 1.05244e-06 0)
(0.0729664 1.02871e-06 0)
(0.0727296 1.00503e-06 0)
(0.072497 9.8227e-07 0)
(0.0722661 9.59805e-07 0)
(0.0720394 9.37567e-07 0)
(0.0718144 9.15288e-07 0)
(0.0715938 8.92773e-07 0)
(0.0713753 8.70354e-07 0)
(0.0711612 8.4779e-07 0)
(0.0709495 8.25104e-07 0)
(0.0707424 8.03114e-07 0)
(0.0705378 7.81343e-07 0)
(0.0703376 7.58638e-07 0)
(0.0701406 7.35761e-07 0)
(0.0699483 7.11803e-07 0)
(0.0697602 6.87592e-07 0)
(0.0695769 6.63788e-07 0)
(0.069398 6.39751e-07 0)
(0.069224 6.14613e-07 0)
(0.0690555 5.87942e-07 0)
(0.068893 5.60446e-07 0)
(0.0687366 5.33043e-07 0)
(0.0685865 5.03521e-07 0)
(0.0684441 4.71699e-07 0)
(0.0683096 4.38259e-07 0)
(0.0681841 4.0393e-07 0)
(0.0680675 3.64859e-07 0)
(0.0679632 3.24125e-07 0)
(0.0678691 2.78881e-07 0)
(0.0677908 2.29265e-07 0)
(0.0677258 1.73588e-07 0)
(0.0676812 1.14711e-07 0)
(0.0676525 4.62215e-08 0)
(0.0676516 -3.36552e-08 0)
(0.0676747 -1.19259e-07 0)
(0.0677299 -2.17282e-07 0)
(0.0678193 -3.30676e-07 0)
(0.0679522 -4.64048e-07 0)
(0.0681346 -6.17648e-07 0)
(0.0683763 -7.99182e-07 0)
(0.0686892 -1.01577e-06 0)
(0.0690886 -1.27405e-06 0)
(0.069592 -1.58408e-06 0)
(0.070223 -1.96247e-06 0)
(0.0710123 -2.42827e-06 0)
(0.0719992 -3.00538e-06 0)
(0.0732341 -3.72792e-06 0)
(0.0747847 -4.64307e-06 0)
(0.0767409 -5.78663e-06 0)
(0.0792018 -7.13466e-06 0)
(0.0822435 -8.57832e-06 0)
(0.0858841 -9.9574e-06 0)
(0.0900765 -1.11387e-05 0)
(0.0947328 -1.2043e-05 0)
(0.0997377 -1.26039e-05 0)
(0.104944 -1.27565e-05 0)
(0.110175 -1.26005e-05 0)
(0.115358 -1.22857e-05 0)
(0.120431 -1.18457e-05 0)
(0.125345 -1.1285e-05 0)
(0.13004 -1.05883e-05 0)
(0.134447 -9.77904e-06 0)
(0.138532 -8.89166e-06 0)
(0.142241 -7.88066e-06 0)
(0.145507 -6.83852e-06 0)
(0.148361 -5.88611e-06 0)
(0.15083 -4.9786e-06 0)
(0.152909 -4.11916e-06 0)
(0.154632 -3.37275e-06 0)
(0.156056 -2.73223e-06 0)
(0.157208 -2.16846e-06 0)
(0.158122 -1.70063e-06 0)
(0.158847 -1.31296e-06 0)
(0.159401 -9.66914e-07 0)
(0.159797 -6.82934e-07 0)
(0.16008 -4.55551e-07 0)
(0.160255 -2.50267e-07 0)
(0.160334 -7.13157e-08 0)
(0.160329 7.12404e-08 0)
(0.16026 1.88631e-07 0)
(0.160131 2.91569e-07 0)
(0.159951 3.78226e-07 0)
(0.159726 4.54466e-07 0)
(0.15946 5.17239e-07 0)
(0.15916 5.69583e-07 0)
(0.158831 6.15412e-07 0)
(0.158474 6.54135e-07 0)
(0.158093 6.86931e-07 0)
(0.157691 7.14868e-07 0)
(0.15727 7.38075e-07 0)
(0.156832 7.57787e-07 0)
(0.156379 7.73916e-07 0)
(0.155913 7.87776e-07 0)
(0.155434 7.99722e-07 0)
(0.154943 8.08668e-07 0)
(0.154443 8.16854e-07 0)
(0.153932 8.24726e-07 0)
(0.153411 8.31845e-07 0)
(0.15288 8.36467e-07 0)
(0.152342 8.43792e-07 0)
(0.151791 8.52972e-07 0)
(0.151229 8.59294e-07 0)
(0.150658 8.6362e-07 0)
(0.150079 8.62978e-07 0)
(0.149497 8.56189e-07 0)
(0.148915 8.43953e-07 0)
(0.148338 8.27073e-07 0)
(0.147768 8.07339e-07 0)
(0.147206 7.86196e-07 0)
(0.146654 7.6463e-07 0)
(0.146112 7.4276e-07 0)
(0.14558 7.20646e-07 0)
(0.145059 6.99079e-07 0)
(0.144547 6.78482e-07 0)
(0.144046 6.58707e-07 0)
(0.143554 6.39605e-07 0)
(0.143072 6.21143e-07 0)
(0.142598 6.03314e-07 0)
(0.142133 5.86044e-07 0)
(0.141677 5.69292e-07 0)
(0.141229 5.53045e-07 0)
(0.140789 5.37555e-07 0)
(0.140358 5.2238e-07 0)
(0.139934 5.07534e-07 0)
(0.139518 4.93663e-07 0)
(0.139108 4.80633e-07 0)
(0.138705 4.68162e-07 0)
(0.138308 4.56211e-07 0)
(0.137918 4.4462e-07 0)
(0.137533 4.33376e-07 0)
(0.137155 4.22526e-07 0)
(0.136781 4.12012e-07 0)
(0.136414 4.01744e-07 0)
(0.136051 3.91739e-07 0)
(0.135694 3.82203e-07 0)
(0.135342 3.72792e-07 0)
(0.134995 3.63531e-07 0)
(0.134653 3.54885e-07 0)
(0.134316 3.46744e-07 0)
(0.133982 3.38885e-07 0)
(0.133654 3.31311e-07 0)
(0.133328 3.23887e-07 0)
(0.133007 3.16666e-07 0)
(0.132689 3.09643e-07 0)
(0.132377 3.02803e-07 0)
(0.132066 2.96047e-07 0)
(0.131761 2.89482e-07 0)
(0.131458 2.83035e-07 0)
(0.13116 2.76767e-07 0)
(0.130864 2.7071e-07 0)
(0.130573 2.64815e-07 0)
(0.130284 2.58943e-07 0)
(0.13 2.53356e-07 0)
(0.129717 2.48083e-07 0)
(0.129439 2.42974e-07 0)
(0.129162 2.38055e-07 0)
(0.12889 2.33228e-07 0)
(0.128618 2.2854e-07 0)
(0.128352 2.23883e-07 0)
(0.128085 2.19305e-07 0)
(0.127824 2.14784e-07 0)
(0.127563 2.10306e-07 0)
(0.127308 2.05968e-07 0)
(0.127052 2.0176e-07 0)
(0.126802 1.97689e-07 0)
(0.126552 1.9366e-07 0)
(0.126306 1.89695e-07 0)
(0.126061 1.85776e-07 0)
(0.125821 1.8166e-07 0)
(0.125581 1.77676e-07 0)
(0.125347 1.74145e-07 0)
(0.125112 1.70897e-07 0)
(0.124882 1.67657e-07 0)
(0.12465 1.64477e-07 0)
(0.124424 1.6133e-07 0)
(0.124197 1.58186e-07 0)
(0.123975 1.54977e-07 0)
(0.123752 1.52001e-07 0)
(0.123534 1.49133e-07 0)
(0.123315 1.46256e-07 0)
(0.123101 1.43346e-07 0)
(0.122887 1.40587e-07 0)
(0.122677 1.37749e-07 0)
(0.122466 1.34949e-07 0)
(0.12226 1.32293e-07 0)
(0.122054 1.29787e-07 0)
(0.121851 1.27224e-07 0)
(0.121649 1.24812e-07 0)
(0.12145 1.22318e-07 0)
(0.121252 1.19899e-07 0)
(0.121056 1.17405e-07 0)
(0.120862 1.15273e-07 0)
(0.12067 1.13183e-07 0)
(0.120479 1.11171e-07 0)
(0.120289 1.09059e-07 0)
(0.120102 1.0708e-07 0)
(0.119915 1.04982e-07 0)
(0.119731 1.02932e-07 0)
(0.119548 1.00827e-07 0)
(0.119368 9.90195e-08 0)
(0.119187 9.71209e-08 0)
(0.119011 9.53189e-08 0)
(0.118832 9.34509e-08 0)
(0.11866 9.19433e-08 0)
(0.118483 8.95231e-08 0)
(0.118317 8.88329e-08 0)
(0.118138 8.56555e-08 0)
(0.117982 8.67079e-08 0)
(0.117794 8.15369e-08 0)
(0.117658 8.55981e-08 0)
(0.117445 7.57623e-08 0)
(0.117354 8.63064e-08 0)
(0.11708 5.70231e-08 0)
(0.11713 9.24474e-08 0)
(0.116665 1.14075e-07 0)
(0.191841 2.09951e-05 0)
(0.190912 2.06356e-05 0)
(0.189989 2.02825e-05 0)
(0.189073 1.99359e-05 0)
(0.188163 1.95935e-05 0)
(0.18726 1.92549e-05 0)
(0.186362 1.89216e-05 0)
(0.185472 1.85948e-05 0)
(0.184587 1.82739e-05 0)
(0.183708 1.79591e-05 0)
(0.182836 1.76498e-05 0)
(0.18197 1.73461e-05 0)
(0.18111 1.70478e-05 0)
(0.180255 1.67552e-05 0)
(0.179407 1.64679e-05 0)
(0.178564 1.61847e-05 0)
(0.177728 1.59042e-05 0)
(0.176897 1.56275e-05 0)
(0.176072 1.5356e-05 0)
(0.175253 1.50896e-05 0)
(0.17444 1.48281e-05 0)
(0.173633 1.45714e-05 0)
(0.172832 1.43191e-05 0)
(0.172036 1.40714e-05 0)
(0.171245 1.3828e-05 0)
(0.170461 1.35893e-05 0)
(0.169681 1.33549e-05 0)
(0.168907 1.31224e-05 0)
(0.168139 1.28919e-05 0)
(0.167377 1.26657e-05 0)
(0.16662 1.24438e-05 0)
(0.165868 1.22261e-05 0)
(0.165122 1.20124e-05 0)
(0.164382 1.18025e-05 0)
(0.163646 1.15964e-05 0)
(0.162916 1.13939e-05 0)
(0.162192 1.1195e-05 0)
(0.161472 1.1e-05 0)
(0.160758 1.08075e-05 0)
(0.160049 1.06164e-05 0)
(0.159345 1.04278e-05 0)
(0.158646 1.02428e-05 0)
(0.157953 1.00614e-05 0)
(0.157265 9.8833e-06 0)
(0.156582 9.70857e-06 0)
(0.155904 9.5369e-06 0)
(0.155231 9.36836e-06 0)
(0.154563 9.20288e-06 0)
(0.153901 9.04045e-06 0)
(0.153242 8.88122e-06 0)
(0.152589 8.7233e-06 0)
(0.151941 8.56654e-06 0)
(0.151298 8.41227e-06 0)
(0.15066 8.26087e-06 0)
(0.150027 8.11231e-06 0)
(0.149399 7.96668e-06 0)
(0.148775 7.82359e-06 0)
(0.148156 7.68315e-06 0)
(0.147543 7.54512e-06 0)
(0.146933 7.40973e-06 0)
(0.146329 7.27673e-06 0)
(0.145729 7.14649e-06 0)
(0.145134 7.01672e-06 0)
(0.144544 6.88811e-06 0)
(0.143958 6.76145e-06 0)
(0.143377 6.63716e-06 0)
(0.142802 6.51492e-06 0)
(0.14223 6.39551e-06 0)
(0.141663 6.27809e-06 0)
(0.141101 6.16278e-06 0)
(0.140544 6.0492e-06 0)
(0.139991 5.93784e-06 0)
(0.139442 5.82835e-06 0)
(0.138898 5.72112e-06 0)
(0.138359 5.61438e-06 0)
(0.137824 5.50839e-06 0)
(0.137294 5.40405e-06 0)
(0.136768 5.3014e-06 0)
(0.136248 5.20035e-06 0)
(0.135731 5.1014e-06 0)
(0.135219 5.00416e-06 0)
(0.134712 4.90849e-06 0)
(0.134209 4.81466e-06 0)
(0.133711 4.72215e-06 0)
(0.133217 4.63151e-06 0)
(0.132728 4.54229e-06 0)
(0.132243 4.45442e-06 0)
(0.131762 4.36632e-06 0)
(0.131287 4.28003e-06 0)
(0.130815 4.19392e-06 0)
(0.130349 4.10994e-06 0)
(0.129887 4.02731e-06 0)
(0.12943 3.94693e-06 0)
(0.128976 3.86713e-06 0)
(0.128529 3.78922e-06 0)
(0.128084 3.71122e-06 0)
(0.127646 3.63487e-06 0)
(0.12721 3.55847e-06 0)
(0.126781 3.48381e-06 0)
(0.126355 3.40858e-06 0)
(0.125936 3.33417e-06 0)
(0.125519 3.25997e-06 0)
(0.12511 3.18642e-06 0)
(0.124704 3.11323e-06 0)
(0.124305 3.04266e-06 0)
(0.123909 2.9732e-06 0)
(0.12352 2.9042e-06 0)
(0.123135 2.83528e-06 0)
(0.122756 2.76545e-06 0)
(0.122381 2.6962e-06 0)
(0.122014 2.62618e-06 0)
(0.121651 2.55615e-06 0)
(0.121296 2.48793e-06 0)
(0.120945 2.42063e-06 0)
(0.120602 2.3502e-06 0)
(0.120264 2.27954e-06 0)
(0.119934 2.20519e-06 0)
(0.119611 2.13054e-06 0)
(0.119297 2.05668e-06 0)
(0.11899 1.98231e-06 0)
(0.118691 1.90435e-06 0)
(0.118402 1.82187e-06 0)
(0.118123 1.73681e-06 0)
(0.117855 1.65192e-06 0)
(0.117598 1.56046e-06 0)
(0.117353 1.46199e-06 0)
(0.117122 1.35853e-06 0)
(0.116907 1.25209e-06 0)
(0.116707 1.13105e-06 0)
(0.116528 1.00512e-06 0)
(0.116366 8.6477e-07 0)
(0.116232 7.11313e-07 0)
(0.11612 5.38722e-07 0)
(0.116043 3.56409e-07 0)
(0.115994 1.43273e-07 0)
(0.115992 -1.04236e-07 0)
(0.116031 -3.6807e-07 0)
(0.116126 -6.72692e-07 0)
(0.116279 -1.02423e-06 0)
(0.116506 -1.43768e-06 0)
(0.116819 -1.91403e-06 0)
(0.117233 -2.47711e-06 0)
(0.11777 -3.14882e-06 0)
(0.118455 -3.95014e-06 0)
(0.119318 -4.91218e-06 0)
(0.120401 -6.08654e-06 0)
(0.121755 -7.53259e-06 0)
(0.123448 -9.32478e-06 0)
(0.125567 -1.15694e-05 0)
(0.128228 -1.44133e-05 0)
(0.131586 -1.79662e-05 0)
(0.13581 -2.21509e-05 0)
(0.141031 -2.66265e-05 0)
(0.147279 -3.08961e-05 0)
(0.154473 -3.45491e-05 0)
(0.162462 -3.73403e-05 0)
(0.171049 -3.90663e-05 0)
(0.179979 -3.95284e-05 0)
(0.188953 -3.90356e-05 0)
(0.197841 -3.80495e-05 0)
(0.206541 -3.6672e-05 0)
(0.214963 -3.49197e-05 0)
(0.223007 -3.27468e-05 0)
(0.230556 -3.02336e-05 0)
(0.237551 -2.74708e-05 0)
(0.243898 -2.43372e-05 0)
(0.249488 -2.11282e-05 0)
(0.254376 -1.81884e-05 0)
(0.258604 -1.53818e-05 0)
(0.262164 -1.27292e-05 0)
(0.265118 -1.0427e-05 0)
(0.267559 -8.44911e-06 0)
(0.269536 -6.70768e-06 0)
(0.271104 -5.26304e-06 0)
(0.272348 -4.06474e-06 0)
(0.273299 -2.99369e-06 0)
(0.273982 -2.11676e-06 0)
(0.274469 -1.41298e-06 0)
(0.274771 -7.76357e-07 0)
(0.274907 -2.23099e-07 0)
(0.2749 2.18609e-07 0)
(0.274783 5.82272e-07 0)
(0.274563 9.00574e-07 0)
(0.274256 1.16977e-06 0)
(0.273871 1.40547e-06 0)
(0.273416 1.60012e-06 0)
(0.272904 1.7626e-06 0)
(0.272339 1.90463e-06 0)
(0.271728 2.02469e-06 0)
(0.271076 2.12643e-06 0)
(0.270387 2.21304e-06 0)
(0.269665 2.28503e-06 0)
(0.268915 2.34608e-06 0)
(0.268139 2.39619e-06 0)
(0.26734 2.43914e-06 0)
(0.266519 2.4761e-06 0)
(0.265678 2.50411e-06 0)
(0.26482 2.52936e-06 0)
(0.263944 2.55393e-06 0)
(0.263051 2.5758e-06 0)
(0.262142 2.5906e-06 0)
(0.261219 2.6136e-06 0)
(0.260274 2.6419e-06 0)
(0.259311 2.66172e-06 0)
(0.258332 2.67483e-06 0)
(0.257339 2.67257e-06 0)
(0.256341 2.65144e-06 0)
(0.255344 2.61329e-06 0)
(0.254354 2.56095e-06 0)
(0.253376 2.49983e-06 0)
(0.252413 2.43441e-06 0)
(0.251467 2.36763e-06 0)
(0.250537 2.29997e-06 0)
(0.249625 2.2315e-06 0)
(0.248731 2.16475e-06 0)
(0.247855 2.10102e-06 0)
(0.246995 2.03982e-06 0)
(0.246152 1.98066e-06 0)
(0.245325 1.92352e-06 0)
(0.244512 1.8683e-06 0)
(0.243715 1.81485e-06 0)
(0.242933 1.76295e-06 0)
(0.242165 1.71265e-06 0)
(0.241411 1.66467e-06 0)
(0.240671 1.61769e-06 0)
(0.239944 1.57172e-06 0)
(0.23923 1.52879e-06 0)
(0.238528 1.48846e-06 0)
(0.237837 1.44986e-06 0)
(0.237157 1.4128e-06 0)
(0.236488 1.3769e-06 0)
(0.235827 1.34211e-06 0)
(0.235178 1.3085e-06 0)
(0.234538 1.27591e-06 0)
(0.233908 1.24414e-06 0)
(0.233286 1.21316e-06 0)
(0.232674 1.18362e-06 0)
(0.23207 1.15448e-06 0)
(0.231476 1.12585e-06 0)
(0.230889 1.09905e-06 0)
(0.230311 1.07383e-06 0)
(0.229739 1.0495e-06 0)
(0.229175 1.02605e-06 0)
(0.228617 1.00305e-06 0)
(0.228067 9.80673e-07 0)
(0.227522 9.58911e-07 0)
(0.226985 9.37735e-07 0)
(0.226453 9.1681e-07 0)
(0.22593 8.96504e-07 0)
(0.22541 8.76529e-07 0)
(0.224899 8.57135e-07 0)
(0.224392 8.38355e-07 0)
(0.223893 8.20114e-07 0)
(0.223397 8.01905e-07 0)
(0.22291 7.84645e-07 0)
(0.222425 7.68289e-07 0)
(0.221949 7.52511e-07 0)
(0.221474 7.37245e-07 0)
(0.221007 7.22319e-07 0)
(0.220541 7.07744e-07 0)
(0.220084 6.93363e-07 0)
(0.219627 6.79189e-07 0)
(0.219179 6.65179e-07 0)
(0.218732 6.51295e-07 0)
(0.218294 6.37889e-07 0)
(0.217856 6.24799e-07 0)
(0.217427 6.12227e-07 0)
(0.216997 5.99726e-07 0)
(0.216577 5.87476e-07 0)
(0.216156 5.75301e-07 0)
(0.215745 5.62553e-07 0)
(0.215334 5.50272e-07 0)
(0.214932 5.39334e-07 0)
(0.214529 5.2924e-07 0)
(0.214134 5.19238e-07 0)
(0.213737 5.09371e-07 0)
(0.213349 4.99614e-07 0)
(0.21296 4.89894e-07 0)
(0.212579 4.79985e-07 0)
(0.212197 4.70771e-07 0)
(0.211824 4.61811e-07 0)
(0.211448 4.5294e-07 0)
(0.211082 4.43952e-07 0)
(0.210713 4.35372e-07 0)
(0.210353 4.2659e-07 0)
(0.209992 4.17949e-07 0)
(0.209639 4.09668e-07 0)
(0.209285 4.0196e-07 0)
(0.208938 3.94019e-07 0)
(0.208591 3.86535e-07 0)
(0.20825 3.78805e-07 0)
(0.20791 3.71355e-07 0)
(0.207575 3.6357e-07 0)
(0.207242 3.57023e-07 0)
(0.206912 3.505e-07 0)
(0.206585 3.44334e-07 0)
(0.20626 3.37738e-07 0)
(0.205938 3.3165e-07 0)
(0.205618 3.25096e-07 0)
(0.205303 3.18808e-07 0)
(0.204988 3.12233e-07 0)
(0.20468 3.06695e-07 0)
(0.204369 3.00718e-07 0)
(0.204067 2.95271e-07 0)
(0.203761 2.89341e-07 0)
(0.203466 2.8478e-07 0)
(0.203162 2.77198e-07 0)
(0.202877 2.75182e-07 0)
(0.202571 2.65169e-07 0)
(0.202303 2.68717e-07 0)
(0.201981 2.52187e-07 0)
(0.201747 2.65653e-07 0)
(0.201383 2.33734e-07 0)
(0.201225 2.689e-07 0)
(0.200758 1.74949e-07 0)
(0.200836 2.9066e-07 0)
(0.20005 3.51111e-07 0)
(0.276705 4.46566e-05 0)
(0.275365 4.38919e-05 0)
(0.274035 4.31408e-05 0)
(0.272713 4.24034e-05 0)
(0.271401 4.16751e-05 0)
(0.270097 4.09551e-05 0)
(0.268803 4.02465e-05 0)
(0.267518 3.95514e-05 0)
(0.266242 3.88689e-05 0)
(0.264975 3.81992e-05 0)
(0.263717 3.75413e-05 0)
(0.262467 3.68953e-05 0)
(0.261227 3.62608e-05 0)
(0.259994 3.56383e-05 0)
(0.258771 3.50271e-05 0)
(0.257555 3.44248e-05 0)
(0.256349 3.38283e-05 0)
(0.25515 3.324e-05 0)
(0.253961 3.26624e-05 0)
(0.25278 3.20959e-05 0)
(0.251607 3.15396e-05 0)
(0.250443 3.09935e-05 0)
(0.249286 3.04569e-05 0)
(0.248138 2.99299e-05 0)
(0.246998 2.94122e-05 0)
(0.245866 2.89044e-05 0)
(0.244742 2.84057e-05 0)
(0.243626 2.79113e-05 0)
(0.242518 2.74213e-05 0)
(0.241418 2.69401e-05 0)
(0.240327 2.64683e-05 0)
(0.239243 2.60052e-05 0)
(0.238167 2.55506e-05 0)
(0.237098 2.51041e-05 0)
(0.236038 2.46656e-05 0)
(0.234985 2.42349e-05 0)
(0.233939 2.38119e-05 0)
(0.232901 2.33968e-05 0)
(0.231871 2.29876e-05 0)
(0.230848 2.25813e-05 0)
(0.229833 2.21802e-05 0)
(0.228826 2.17867e-05 0)
(0.227826 2.14008e-05 0)
(0.226833 2.1022e-05 0)
(0.225848 2.06503e-05 0)
(0.22487 2.02852e-05 0)
(0.2239 1.99267e-05 0)
(0.222936 1.95746e-05 0)
(0.22198 1.92291e-05 0)
(0.221031 1.88903e-05 0)
(0.220089 1.85545e-05 0)
(0.219154 1.82212e-05 0)
(0.218226 1.78931e-05 0)
(0.217306 1.75711e-05 0)
(0.216393 1.72551e-05 0)
(0.215486 1.69453e-05 0)
(0.214587 1.6641e-05 0)
(0.213695 1.63422e-05 0)
(0.212809 1.60486e-05 0)
(0.211931 1.57606e-05 0)
(0.211059 1.54777e-05 0)
(0.210194 1.52005e-05 0)
(0.209335 1.49246e-05 0)
(0.208484 1.46511e-05 0)
(0.207639 1.43818e-05 0)
(0.206801 1.41174e-05 0)
(0.205971 1.38575e-05 0)
(0.205146 1.36034e-05 0)
(0.204329 1.33537e-05 0)
(0.203518 1.31083e-05 0)
(0.202714 1.28668e-05 0)
(0.201916 1.26298e-05 0)
(0.201125 1.2397e-05 0)
(0.200341 1.21687e-05 0)
(0.199563 1.19419e-05 0)
(0.198791 1.17164e-05 0)
(0.198027 1.14946e-05 0)
(0.197268 1.12762e-05 0)
(0.196517 1.10614e-05 0)
(0.195772 1.08508e-05 0)
(0.195034 1.06441e-05 0)
(0.194302 1.04405e-05 0)
(0.193577 1.02409e-05 0)
(0.192858 1.00441e-05 0)
(0.192146 9.85136e-06 0)
(0.19144 9.66153e-06 0)
(0.190741 9.47466e-06 0)
(0.190047 9.28737e-06 0)
(0.189362 9.10386e-06 0)
(0.188681 8.92078e-06 0)
(0.188009 8.7422e-06 0)
(0.187342 8.56647e-06 0)
(0.186683 8.39547e-06 0)
(0.186029 8.22573e-06 0)
(0.185383 8.05996e-06 0)
(0.184741 7.89409e-06 0)
(0.184109 7.73161e-06 0)
(0.183481 7.56918e-06 0)
(0.182862 7.41029e-06 0)
(0.182247 7.25038e-06 0)
(0.181643 7.09216e-06 0)
(0.181042 6.93449e-06 0)
(0.180452 6.77806e-06 0)
(0.179866 6.6226e-06 0)
(0.17929 6.4724e-06 0)
(0.178719 6.32477e-06 0)
(0.178158 6.17788e-06 0)
(0.177601 6.03138e-06 0)
(0.177056 5.88277e-06 0)
(0.176515 5.7357e-06 0)
(0.175985 5.58665e-06 0)
(0.175462 5.43801e-06 0)
(0.174949 5.2928e-06 0)
(0.174443 5.14977e-06 0)
(0.173947 4.99986e-06 0)
(0.17346 4.8498e-06 0)
(0.172984 4.69162e-06 0)
(0.172518 4.53325e-06 0)
(0.172064 4.37604e-06 0)
(0.171621 4.21799e-06 0)
(0.171191 4.05203e-06 0)
(0.170773 3.87681e-06 0)
(0.170371 3.69608e-06 0)
(0.169984 3.51543e-06 0)
(0.169612 3.32088e-06 0)
(0.169259 3.11159e-06 0)
(0.168926 2.89176e-06 0)
(0.168615 2.66519e-06 0)
(0.168326 2.40781e-06 0)
(0.168067 2.14027e-06 0)
(0.167833 1.84152e-06 0)
(0.167639 1.51537e-06 0)
(0.167477 1.14832e-06 0)
(0.167366 7.60493e-07 0)
(0.167294 3.0566e-07 0)
(0.167292 -2.20701e-07 0)
(0.167348 -7.79874e-07 0)
(0.167483 -1.42908e-06 0)
(0.167704 -2.17732e-06 0)
(0.168032 -3.05694e-06 0)
(0.168483 -4.07088e-06 0)
(0.16908 -5.26934e-06 0)
(0.169854 -6.69893e-06 0)
(0.170841 -8.40478e-06 0)
(0.172087 -1.0453e-05 0)
(0.173648 -1.29532e-05 0)
(0.175602 -1.60325e-05 0)
(0.178045 -1.98493e-05 0)
(0.181103 -2.46306e-05 0)
(0.184943 -3.06892e-05 0)
(0.189789 -3.82572e-05 0)
(0.195886 -4.71673e-05 0)
(0.203421 -5.6691e-05 0)
(0.212438 -6.57718e-05 0)
(0.222819 -7.35375e-05 0)
(0.234347 -7.94665e-05 0)
(0.246736 -8.31287e-05 0)
(0.259622 -8.41027e-05 0)
(0.27257 -8.30437e-05 0)
(0.285394 -8.09309e-05 0)
(0.297942 -7.79794e-05 0)
(0.310085 -7.42276e-05 0)
(0.321679 -6.95843e-05 0)
(0.332557 -6.42271e-05 0)
(0.342632 -5.83296e-05 0)
(0.35177 -5.16643e-05 0)
(0.359821 -4.48673e-05 0)
(0.366865 -3.86303e-05 0)
(0.372957 -3.26683e-05 0)
(0.378089 -2.70401e-05 0)
(0.382349 -2.21573e-05 0)
(0.38587 -1.79591e-05 0)
(0.388724 -1.42617e-05 0)
(0.390989 -1.11946e-05 0)
(0.392787 -8.64868e-06 0)
(0.394163 -6.37143e-06 0)
(0.395151 -4.50905e-06 0)
(0.395856 -3.01249e-06 0)
(0.396296 -1.65714e-06 0)
(0.396495 -4.81055e-07 0)
(0.396488 4.59153e-07 0)
(0.396321 1.233e-06 0)
(0.396007 1.90961e-06 0)
(0.395566 2.4834e-06 0)
(0.395012 2.98439e-06 0)
(0.394358 3.39894e-06 0)
(0.39362 3.74521e-06 0)
(0.392807 4.04755e-06 0)
(0.391927 4.30327e-06 0)
(0.390987 4.51995e-06 0)
(0.389995 4.7043e-06 0)
(0.388955 4.85774e-06 0)
(0.387875 4.98771e-06 0)
(0.386755 5.09445e-06 0)
(0.385604 5.18593e-06 0)
(0.38442 5.26453e-06 0)
(0.383208 5.32453e-06 0)
(0.381971 5.37823e-06 0)
(0.380708 5.43067e-06 0)