/*--------------------------------*- C++ -*----------------------------------*\
| =========                 |                                                 |
| \\      /  F ield         | OpenFOAM: The Open Source CFD Toolbox           |
|  \\    /   O peration     | Version:  v1912                                 |
|   \\  /    A nd           | Website:  www.openfoam.com                      |
|    \\/     M anipulation  |                                                 |
\*---------------------------------------------------------------------------*/
FoamFile
{
    version     2.0;
    format      ascii;
    class       volVectorField;
    location    "5000";
    object      wallShearStress;
}
// * * * * * * * * * * * * * * * * * * * * * * * * * * * * * * * * * * * * * //

dimensions      [0 2 -2 0 0 0 0];


internalField   uniform (0 0 0);

boundaryField
{
    lowerWall
    {
        type            calculated;
        value           nonuniform List<vector> 
317
(
(-0.0539047 -2.36185e-06 0)
(-0.0536437 -2.32144e-06 0)
(-0.0533845 -2.28171e-06 0)
(-0.0531271 -2.24274e-06 0)
(-0.0528714 -2.2042e-06 0)
(-0.0526175 -2.16608e-06 0)
(-0.0523654 -2.12857e-06 0)
(-0.0521151 -2.09182e-06 0)
(-0.0518666 -2.05571e-06 0)
(-0.0516197 -2.02031e-06 0)
(-0.0513747 -1.9855e-06 0)
(-0.0511313 -1.95137e-06 0)
(-0.0508896 -1.91781e-06 0)
(-0.0506496 -1.88492e-06 0)
(-0.0504112 -1.85259e-06 0)
(-0.0501745 -1.82075e-06 0)
(-0.0499394 -1.78916e-06 0)
(-0.049706 -1.75803e-06 0)
(-0.0494743 -1.72746e-06 0)
(-0.0492443 -1.69749e-06 0)
(-0.0490158 -1.66808e-06 0)
(-0.048789 -1.63921e-06 0)
(-0.0485638 -1.61085e-06 0)
(-0.0483402 -1.58298e-06 0)
(-0.0481181 -1.55561e-06 0)
(-0.0478976 -1.52877e-06 0)
(-0.0476787 -1.50241e-06 0)
(-0.0474613 -1.47625e-06 0)
(-0.0472454 -1.45028e-06 0)
(-0.0470312 -1.42483e-06 0)
(-0.0468185 -1.39987e-06 0)
(-0.0466074 -1.37537e-06 0)
(-0.0463978 -1.35135e-06 0)
(-0.0461897 -1.32774e-06 0)
(-0.0459831 -1.30456e-06 0)
(-0.045778 -1.28178e-06 0)
(-0.0455744 -1.25942e-06 0)
(-0.0453722 -1.23749e-06 0)
(-0.0451715 -1.21584e-06 0)
(-0.0449723 -1.19433e-06 0)
(-0.0447746 -1.17309e-06 0)
(-0.0445783 -1.15228e-06 0)
(-0.0443835 -1.13186e-06 0)
(-0.0441902 -1.11182e-06 0)
(-0.0439983 -1.09217e-06 0)
(-0.0438079 -1.07287e-06 0)
(-0.0436188 -1.05391e-06 0)
(-0.0434312 -1.0353e-06 0)
(-0.0432449 -1.01703e-06 0)
(-0.0430601 -9.99152e-07 0)
(-0.0428765 -9.81353e-07 0)
(-0.0426944 -9.63715e-07 0)
(-0.0425138 -9.46349e-07 0)
(-0.0423345 -9.29318e-07 0)
(-0.0421566 -9.12588e-07 0)
(-0.0419801 -8.96214e-07 0)
(-0.0418049 -8.80128e-07 0)
(-0.0416311 -8.64342e-07 0)
(-0.0414587 -8.488e-07 0)
(-0.0412875 -8.33592e-07 0)
(-0.0411177 -8.18612e-07 0)
(-0.0409492 -8.03996e-07 0)
(-0.040782 -7.89375e-07 0)
(-0.0406161 -7.74901e-07 0)
(-0.0404516 -7.6063e-07 0)
(-0.0402884 -7.46667e-07 0)
(-0.0401266 -7.32882e-07 0)
(-0.039966 -7.19481e-07 0)
(-0.0398069 -7.06239e-07 0)
(-0.0396489 -6.93311e-07 0)
(-0.0394923 -6.80506e-07 0)
(-0.0393369 -6.68026e-07 0)
(-0.0391828 -6.55673e-07 0)
(-0.03903 -6.43637e-07 0)
(-0.0388784 -6.31616e-07 0)
(-0.0387281 -6.19702e-07 0)
(-0.0385792 -6.07915e-07 0)
(-0.0384315 -5.96409e-07 0)
(-0.0382852 -5.85008e-07 0)
(-0.0381401 -5.73906e-07 0)
(-0.0379964 -5.62931e-07 0)
(-0.0378537 -5.52201e-07 0)
(-0.0377126 -5.41632e-07 0)
(-0.0375725 -5.31222e-07 0)
(-0.0374339 -5.21022e-07 0)
(-0.0372963 -5.11006e-07 0)
(-0.0371602 -5.01113e-07 0)
(-0.0370251 -4.91185e-07 0)
(-0.0368915 -4.81474e-07 0)
(-0.036759 -4.71778e-07 0)
(-0.0366281 -4.62352e-07 0)
(-0.0364981 -4.53024e-07 0)
(-0.0363698 -4.43987e-07 0)
(-0.0362424 -4.35003e-07 0)
(-0.0361166 -4.26258e-07 0)
(-0.0359917 -4.17472e-07 0)
(-0.0358686 -4.08904e-07 0)
(-0.0357462 -4.00285e-07 0)
(-0.0356257 -3.91919e-07 0)
(-0.035506 -3.83424e-07 0)
(-0.0353882 -3.75058e-07 0)
(-0.0352712 -3.66676e-07 0)
(-0.0351563 -3.58416e-07 0)
(-0.0350422 -3.50128e-07 0)
(-0.0349302 -3.42218e-07 0)
(-0.0348189 -3.34379e-07 0)
(-0.0347097 -3.2664e-07 0)
(-0.0346014 -3.18871e-07 0)
(-0.0344951 -3.11032e-07 0)
(-0.0343899 -3.03201e-07 0)
(-0.0342867 -2.95361e-07 0)
(-0.0341848 -2.87417e-07 0)
(-0.034085 -2.79777e-07 0)
(-0.0339865 -2.72163e-07 0)
(-0.0338901 -2.64293e-07 0)
(-0.0337952 -2.5628e-07 0)
(-0.0337026 -2.47955e-07 0)
(-0.033612 -2.39471e-07 0)
(-0.0335237 -2.31196e-07 0)
(-0.0334376 -2.22799e-07 0)
(-0.0333538 -2.14067e-07 0)
(-0.0332727 -2.04749e-07 0)
(-0.0331944 -1.95151e-07 0)
(-0.0331192 -1.8561e-07 0)
(-0.0330469 -1.75328e-07 0)
(-0.0329783 -1.64243e-07 0)
(-0.0329136 -1.52572e-07 0)
(-0.0328532 -1.40639e-07 0)
(-0.0327971 -1.27032e-07 0)
(-0.0327469 -1.12811e-07 0)
(-0.0327017 -9.70877e-08 0)
(-0.032664 -7.97786e-08 0)
(-0.0326328 -6.03926e-08 0)
(-0.0326114 -3.98951e-08 0)
(-0.0325976 -1.62066e-08 0)
(-0.0325972 1.15933e-08 0)
(-0.0326084 4.16046e-08 0)
(-0.0326351 7.55634e-08 0)
(-0.0326782 1.14964e-07 0)
(-0.0327423 1.61352e-07 0)
(-0.0328302 2.14728e-07 0)
(-0.0329466 2.77747e-07 0)
(-0.0330973 3.5295e-07 0)
(-0.0332897 4.42614e-07 0)
(-0.0335321 5.50152e-07 0)
(-0.0338358 6.81367e-07 0)
(-0.0342158 8.42776e-07 0)
(-0.0346907 1.04262e-06 0)
(-0.0352849 1.29259e-06 0)
(-0.0360308 1.60895e-06 0)
(-0.0369717 2.00443e-06 0)
(-0.0381552 2.47154e-06 0)
(-0.0396182 2.9734e-06 0)
(-0.0413696 3.45446e-06 0)
(-0.043387 3.86778e-06 0)
(-0.0456282 4.18553e-06 0)
(-0.0480377 4.38438e-06 0)
(-0.0505444 4.44076e-06 0)
(-0.0530638 4.38889e-06 0)
(-0.0555599 4.28145e-06 0)
(-0.0580046 4.13087e-06 0)
(-0.0603728 3.93838e-06 0)
(-0.0626373 3.69851e-06 0)
(-0.0647636 3.41796e-06 0)
(-0.0667354 3.11152e-06 0)
(-0.0685271 2.7602e-06 0)
(-0.0701043 2.39401e-06 0)
(-0.0714818 2.06045e-06 0)
(-0.0726732 1.74365e-06 0)
(-0.0736764 1.44253e-06 0)
(-0.0745076 1.18058e-06 0)
(-0.0751939 9.56188e-07 0)
(-0.0757494 7.58761e-07 0)
(-0.0761895 5.94754e-07 0)
(-0.0765382 4.59112e-07 0)
(-0.0768047 3.3828e-07 0)
(-0.0769954 2.38646e-07 0)
(-0.077131 1.59243e-07 0)
(-0.0772151 8.77912e-08 0)
(-0.0772523 2.51481e-08 0)
(-0.0772495 -2.45903e-08 0)
(-0.0772158 -6.55592e-08 0)
(-0.0771533 -1.01581e-07 0)
(-0.0770664 -1.31667e-07 0)
(-0.0769575 -1.58356e-07 0)
(-0.076829 -1.80249e-07 0)
(-0.0766846 -1.98463e-07 0)
(-0.0765255 -2.14421e-07 0)
(-0.0763533 -2.27925e-07 0)
(-0.0761697 -2.39356e-07 0)
(-0.0759758 -2.49087e-07 0)
(-0.0757728 -2.57157e-07 0)
(-0.0755618 -2.64032e-07 0)
(-0.0753434 -2.69665e-07 0)
(-0.0751187 -2.74478e-07 0)
(-0.0748876 -2.78664e-07 0)
(-0.0746513 -2.81755e-07 0)
(-0.07441 -2.84619e-07 0)
(-0.0741638 -2.87326e-07 0)
(-0.0739126 -2.89833e-07 0)
(-0.0736571 -2.91374e-07 0)
(-0.0733977 -2.93869e-07 0)
(-0.0731322 -2.97093e-07 0)
(-0.0728616 -2.99272e-07 0)
(-0.0725865 -3.00853e-07 0)
(-0.0723075 -3.0068e-07 0)
(-0.0720271 -2.98363e-07 0)
(-0.0717467 -2.94161e-07 0)
(-0.0714686 -2.88307e-07 0)
(-0.0711937 -2.81436e-07 0)
(-0.0709231 -2.74073e-07 0)
(-0.070657 -2.66537e-07 0)
(-0.0703958 -2.58914e-07 0)
(-0.0701394 -2.5121e-07 0)
(-0.0698883 -2.43685e-07 0)
(-0.069642 -2.36506e-07 0)
(-0.0694005 -2.29622e-07 0)
(-0.0691635 -2.22947e-07 0)
(-0.0689311 -2.16514e-07 0)
(-0.0687028 -2.10301e-07 0)
(-0.068479 -2.04277e-07 0)
(-0.068259 -1.98448e-07 0)
(-0.0680434 -1.92769e-07 0)
(-0.0678315 -1.87378e-07 0)
(-0.0676235 -1.82091e-07 0)
(-0.0674191 -1.769e-07 0)
(-0.0672187 -1.72061e-07 0)
(-0.0670213 -1.67531e-07 0)
(-0.0668273 -1.63172e-07 0)
(-0.0666361 -1.5901e-07 0)
(-0.0664481 -1.54968e-07 0)
(-0.0662626 -1.51046e-07 0)
(-0.0660802 -1.47264e-07 0)
(-0.0659002 -1.43602e-07 0)
(-0.0657232 -1.40017e-07 0)
(-0.0655484 -1.36537e-07 0)
(-0.0653766 -1.33202e-07 0)
(-0.0652068 -1.29932e-07 0)
(-0.0650399 -1.26691e-07 0)
(-0.0648749 -1.23684e-07 0)
(-0.0647126 -1.20846e-07 0)
(-0.0645518 -1.18114e-07 0)
(-0.0643935 -1.15468e-07 0)
(-0.0642366 -1.12875e-07 0)
(-0.0640821 -1.10362e-07 0)
(-0.0639289 -1.07907e-07 0)
(-0.0637782 -1.05525e-07 0)
(-0.0636286 -1.03179e-07 0)
(-0.0634816 -1.00889e-07 0)
(-0.0633355 -9.86501e-08 0)
(-0.063192 -9.64618e-08 0)
(-0.0630494 -9.43471e-08 0)
(-0.0629092 -9.2289e-08 0)
(-0.0627699 -9.02575e-08 0)
(-0.0626331 -8.8296e-08 0)
(-0.0624968 -8.64544e-08 0)
(-0.062363 -8.4675e-08 0)
(-0.0622295 -8.29738e-08 0)
(-0.0620984 -8.12769e-08 0)
(-0.0619675 -7.96406e-08 0)
(-0.061839 -7.80198e-08 0)
(-0.0617107 -7.64297e-08 0)
(-0.0615849 -7.48505e-08 0)
(-0.0614592 -7.33009e-08 0)
(-0.0613361 -7.17762e-08 0)
(-0.061213 -7.03141e-08 0)
(-0.0610924 -6.8889e-08 0)
(-0.0609717 -6.74978e-08 0)
(-0.0608536 -6.6108e-08 0)
(-0.0607353 -6.4745e-08 0)
(-0.0606197 -6.33091e-08 0)
(-0.0605042 -6.19176e-08 0)
(-0.0603913 -6.06968e-08 0)
(-0.060278 -5.9567e-08 0)
(-0.060167 -5.843e-08 0)
(-0.0600556 -5.73111e-08 0)
(-0.0599467 -5.62377e-08 0)
(-0.0598372 -5.51247e-08 0)
(-0.0597303 -5.40124e-08 0)
(-0.059623 -5.29814e-08 0)
(-0.059518 -5.19734e-08 0)
(-0.0594125 -5.09696e-08 0)
(-0.0593094 -4.9958e-08 0)
(-0.059206 -4.90031e-08 0)
(-0.0591047 -4.80036e-08 0)
(-0.0590033 -4.70287e-08 0)
(-0.0589041 -4.61145e-08 0)
(-0.0588047 -4.52254e-08 0)
(-0.0587071 -4.43419e-08 0)
(-0.0586096 -4.34948e-08 0)
(-0.0585137 -4.2628e-08 0)
(-0.0584181 -4.1792e-08 0)
(-0.058324 -4.09128e-08 0)
(-0.0582304 -4.01701e-08 0)
(-0.0581378 -3.94458e-08 0)
(-0.0580458 -3.87357e-08 0)
(-0.0579544 -3.8012e-08 0)
(-0.0578641 -3.73083e-08 0)
(-0.0577741 -3.65974e-08 0)
(-0.0576856 -3.58652e-08 0)
(-0.0575971 -3.51521e-08 0)
(-0.0575105 -3.44893e-08 0)
(-0.0574233 -3.38569e-08 0)
(-0.0573384 -3.32156e-08 0)
(-0.0572524 -3.25766e-08 0)
(-0.0571693 -3.20302e-08 0)
(-0.057084 -3.12251e-08 0)
(-0.057004 -3.09366e-08 0)
(-0.0569179 -2.98692e-08 0)
(-0.0568428 -3.0178e-08 0)
(-0.0567519 -2.84781e-08 0)
(-0.0566867 -2.9727e-08 0)
(-0.0565836 -2.65698e-08 0)
(-0.0565405 -2.97808e-08 0)
(-0.0564076 -2.0191e-08 0)
(-0.0564338 -3.14156e-08 0)
(-0.0562061 -3.97102e-08 0)
)
;
    }
    lowerSymmetry
    {
        type            calculated;
        value           nonuniform 0();
    }
    upperSymmetry
    {
        type            calculated;
        value           uniform (0 0 0);
    }
    inlet
    {
        type            calculated;
        value           nonuniform 0();
    }
    outlet
    {
        type            calculated;
        value           uniform (0 0 0);
    }
    defaultFaces
    {
        type            empty;
    }
    procBoundary1to0
    {
        type            processor;
        value           uniform (0 0 0);
    }
}


// ************************************************************************* //
