/*--------------------------------*- C++ -*----------------------------------*\
| =========                 |                                                 |
| \\      /  F ield         | OpenFOAM: The Open Source CFD Toolbox           |
|  \\    /   O peration     | Version:  v1912                                 |
|   \\  /    A nd           | Website:  www.openfoam.com                      |
|    \\/     M anipulation  |                                                 |
\*---------------------------------------------------------------------------*/
FoamFile
{
    version     2.0;
    format      ascii;
    class       volScalarField;
    location    "1000";
    object      Ma;
}
// * * * * * * * * * * * * * * * * * * * * * * * * * * * * * * * * * * * * * //

dimensions      [0 0 0 0 0 0 0];


internalField   nonuniform List<scalar> 
7500
(
0.6619333623414791
0.661912579982839
0.6618711713253882
0.6618088903805383
0.6617248303918727
0.6616184272455856
0.6614888974223758
0.6613352096527118
0.6611561367976272
0.6609502585892401
0.6607159333573709
0.660451277858693
0.6601541485258956
0.6598221167543455
0.6594524417318011
0.659042038815885
0.6585874425387223
0.6580847637338741
0.6575296397003333
0.6569171760989233
0.6562418790384124
0.6554975754158192
0.6546773190896922
0.6537732798492052
0.6527766113353717
0.6516772930103254
0.6504639398642882
0.6491235716634206
0.6476413309829785
0.6460001357575891
0.6441802471966436
0.6421587270299385
0.6399087481718373
0.6373987085853506
0.6345910759038376
0.6314408573615267
0.6278935292625114
0.6238821811945977
0.6193235533633216
0.6141122965006859
0.6081122716674323
0.6011436224807021
0.5929597761865331
0.5832162330524402
0.5713971130205724
0.5567150173751892
0.5377068452687558
0.5122262181093267
0.4751848619244701
0.4192364677744563
0.6619468894375872
0.6619255424414073
0.6618850362320753
0.6618234150866228
0.6617399728940943
0.6616343119930879
0.6615056023534395
0.6613527770419187
0.6611746908359973
0.6609699637648261
0.6607369627367384
0.6604738198329431
0.6601784099153656
0.6598483253979738
0.6594808500990128
0.6590729281912291
0.6586211279050512
0.6581215995551145
0.6575700268126008
0.6569615699803949
0.6562907998022401
0.6555516199679599
0.6547371760251978
0.6538397478378689
0.6528506219890318
0.6517599395561006
0.6505565134093456
0.6492276074855035
0.6477586682040902
0.6461329950896569
0.6443313333974662
0.6423313656071989
0.6401070703432016
0.6376279055173699
0.6348577561060815
0.6317535664656007
0.6282635042800213
0.6243244659885493
0.6198587556009357
0.6147693991866113
0.6089334321158743
0.6021921816757797
0.5943354503706579
0.5850833374033269
0.5740527596807112
0.5607722482778406
0.5446820318176391
0.5263841707119237
0.5067781479781022
0.4918499262687176
0.6619703948144908
0.661947789240048
0.6619074973634208
0.6618462006300956
0.6617632507013703
0.6616584295896519
0.6615308705861859
0.6613795039991699
0.6612031251261915
0.661000340476529
0.660769543255073
0.6605088935344853
0.6602162968830911
0.6598893813157566
0.6595254717221422
0.6591215597591682
0.6586742688284636
0.6581798136200125
0.6576339532327062
0.657031936732656
0.656368439803074
0.6556374908127841
0.65483238423429
0.653945578848397
0.6529685775381573
0.6518917846593875
0.6507043359208657
0.6493938943349599
0.6479464040020092
0.6463457911253245
0.6445735985271209
0.6426085357909114
0.6404259217290442
0.6379969886763744
0.6352880105821298
0.6322592048430595
0.6288632828377523
0.6250436153336961
0.6207320331403003
0.6158459262715992
0.6102846511292344
0.603924461418027
0.5966117264588067
0.5881629198570435
0.5783873004415147
0.5671709691730352
0.5545399111297874
0.5415690742300653
0.5299747011949583
0.5239406124966788
0.6620060739257131
0.6619834587741926
0.6619442742019299
0.6618842279625146
0.6618024119833577
0.6616989157367109
0.6615729941288775
0.6614236088938849
0.6612496064555762
0.6610496286132355
0.6608220920632775
0.660565187493166
0.6602768613487507
0.659954791676539
0.6595963630180488
0.6591986376310986
0.6587583221024929
0.6582717289867636
0.6577347326065567
0.6571427179828108
0.6564905217186179
0.6557723634004549
0.6549817657637921
0.6541114614859919
0.6531532839867445
0.6520980390109615
0.6509353530093933
0.6496534933753102
0.6482391543861827
0.646677201167146
0.6449503620417809
0.6430388571414969
0.6409199478733401
0.6385673877488731
0.6359507497445102
0.6330346127670768
0.629777724720977
0.6261320963904078
0.6220415657361241
0.6174408500628533
0.6122549215272367
0.606399667168681
0.5997884253454265
0.5923488655432299
0.5840634191339453
0.5750820371882233
0.5658353667027997
0.557553858920612
0.5521087955428361
0.5521971445736901
0.6620522553377384
0.6620291340665134
0.6619902904027541
0.6619313111969563
0.6618509308336376
0.6617492820863735
0.6616256812637386
0.6614790775543726
0.6613083252939227
0.661112098173391
0.6608888563798725
0.6606368417278331
0.6603540591475167
0.6600382543042459
0.6596868903557007
0.6592971210849921
0.6588657597848383
0.6583892436810148
0.6578635931573311
0.657284364914947
0.6566465981101602
0.6559447523242442
0.6551726359960864
0.6543233236952508
0.65338906031416
0.6523611499133445
0.6512298265698728
0.6499841041735427
0.6486116017282109
0.6470983404332932
0.6454285087955621
0.6435841925581767
0.641545067681104
0.6392880575015105
0.6367869575325334
0.6340120287417293
0.6309295960391079
0.6275018172736186
0.6236869175123209
0.6194391492469905
0.6147099010865518
0.6094558720748952
0.6036545364118368
0.5973247369903733
0.5905710735039252
0.583679788775712
0.5771918739218329
0.5721569007585499
0.5700657935715771
0.5728924721561478
0.6621098439858266
0.6620870627625289
0.6620492555351301
0.6619920007069645
0.6619136961990403
0.6618144333522215
0.6616936708985327
0.6615504375011383
0.6613836450970422
0.6611920263943136
0.6609740974833014
0.6607281605543525
0.6604522912493686
0.6601443180535854
0.6598018007566878
0.6594220060111836
0.6590018790628887
0.6585380115552321
0.6580266049008227
0.6574634285591059
0.656843772516949
0.6561623931592787
0.6554134515932513
0.654590443369563
0.6536861184257783
0.6526923899732706
0.651600230990853
0.6503995570240919
0.649079094205756
0.6476262319830368
0.6460268612551197
0.6442652011701672
0.6423236226319993
0.6401824863341727
0.6378200290668593
0.635212361495047
0.6323336681653433
0.6291567150220922
0.6256537161714573
0.6217980389309214
0.61757026897511
0.6129671325674528
0.6080141983174239
0.6027946015350332
0.5974866534003618
0.59243127908611
0.5881732776961593
0.5855501079183034
0.5856174225554859
0.5897668494528882
0.6621779430394774
0.6621553523838479
0.6621182786471542
0.6620625311294884
0.6619864062712416
0.6618898963615624
0.6617725167813155
0.6616333369677517
0.6614712957614249
0.6612851737837618
0.6610735493114627
0.6608347963048332
0.6605670737459949
0.6602683070893813
0.6599361687901678
0.6595680564741511
0.6591610678034054
0.6587119720680613
0.6582171782005601
0.6576726987615835
0.6570741094675775
0.6564165038116805
0.6556944423198794
0.6549018960193453
0.6540321837909112
0.6530779034680841
0.6520308568919702
0.6508819697218409
0.6496212077648157
0.648237493151697
0.6467186260938711
0.6450512218318392
0.6432206778239511
0.6412111970608164
0.6390059109725025
0.6365871997853488
0.6339372931945954
0.6310390607885148
0.6278775243601692
0.6244445886713056
0.620746116671505
0.6168087822998202
0.6126950241671284
0.6085272695686087
0.6045169479089461
0.6010056278268197
0.5984857003866421
0.5976252398250665
0.5991777973121778
0.6040850351628529
0.6622566370989242
0.6622346643262003
0.6621987824376326
0.6621450109092232
0.6620716067770583
0.6619784353044583
0.6618650446198211
0.6617305791098929
0.6615740383541475
0.6613942711197049
0.6611899333336593
0.66095948463292
0.6607011814066297
0.6604130612943432
0.6600929261645837
0.6597383233475892
0.6593465241605881
0.6589144997773948
0.6584388943717486
0.6579159953291529
0.6573417003740002
0.656711481516561
0.6560203458087618
0.6552627930552105
0.6544327708841144
0.6535236279924924
0.6525280670286104
0.6514380995823654
0.6502450073432333
0.6489393159769241
0.6475107919126666
0.6459484781171724
0.6442407931784592
0.6423757366050437
0.640341259636343
0.6381258793295396
0.6357194261175717
0.6331142138152236
0.6303084082324854
0.6273109697699663
0.6241457961225554
0.6208617648558424
0.6175453326862523
0.6143388381818323
0.6114602478398101
0.6092252272213265
0.6080543375693613
0.6084781187078374
0.6110587967427418
0.6164485585007556
0.6623453898899933
0.6623240689800324
0.6622893843462818
0.6622375871335497
0.6621670043704994
0.6620774337070905
0.6619684362650892
0.6618392147756192
0.6616888213146924
0.6615161667404826
0.6613199848979862
0.6610988261023829
0.6608510515324447
0.6605748204873494
0.6602680758567691
0.6599285283463883
0.6595536386974924
0.6591405979902587
0.6586863061562843
0.6581873487335103
0.6576399719910583
0.6570400566922346
0.6563830909508347
0.6556641429220734
0.6548778344881635
0.6540183177144469
0.6530792567422431
0.6520538190698953
0.6509346821178035
0.6497140636329153
0.6483837881090564
0.6469354085467777
0.6453604137095427
0.6436505730490918
0.6417984392262327
0.6397979894236832
0.6376456764415666
0.6353430311369965
0.6328999280009757
0.6303373195412026
0.6276933333470786
0.6250317142722664
0.6224520133199354
0.6201024970723737
0.6181925082583988
0.6170025294370791
0.6168822903411832
0.6182502438854314
0.6215386823430068
0.6272332541437478
0.6624439240308911
0.6624234592344895
0.6623902475328058
0.6623407526141307
0.6622733897511989
0.6621879090412284
0.6620838702965688
0.6619605297243701
0.6618170018401052
0.6616522696775704
0.6614651546335937
0.6612543084686773
0.661018208672382
0.6607551484312827
0.6604632247939416
0.6601403260575329
0.6597841178713155
0.6593920281516137
0.6589612310872819
0.6584886304935064
0.6579708428963607
0.6574041809328155
0.6567846379207793
0.656107874843713
0.6553692115439816
0.654563624731874
0.6536857565146031
0.6527299387655932
0.6516902409929805
0.6505605520744486
0.6493347112563781
0.6480067141471517
0.646571024457211
0.6450230106515898
0.6433594446430523
0.6415793093977001
0.6396857151955166
0.6376882920149389
0.6356049823962692
0.6334661784624459
0.6313198712290052
0.6292384101874663
0.6273262836945055
0.6257286214909598
0.6246382000975731
0.6242990709016768
0.6250002764188796
0.6270720246107409
0.6308490321168198
0.6367216000936853
0.6625517651707049
0.6625322383224845
0.6625006108887759
0.6624535538614023
0.6623895902981881
0.6623084626817746
0.662209741775778
0.6620927358904027
0.6619566238993718
0.6618004632748661
0.6616231654348012
0.6614234877834668
0.661200029824863
0.6609512256400408
0.6606753348464474
0.6603704331620461
0.660034402378825
0.6596649199124096
0.6592594483412028
0.6588152253995682
0.6583292550468858
0.6577983004846127
0.6572188803302829
0.6565872696143813
0.6558995078978714
0.6551514177311433
0.6543386377472326
0.6534566765045723
0.6525009953727886
0.6514671319822373
0.6503508844695984
0.6491485801594257
0.6478574212976679
0.6464758944960448
0.64500448836485
0.6434471973220142
0.6418129735762557
0.6401170808740175
0.6383839667553876
0.6366507202376678
0.6349713483343077
0.6334219921354469
0.6321065066986804
0.6311617064672927
0.6307607430116718
0.6311134400206236
0.6324589097378492
0.6350603065902118
0.6391760911450713
0.6451363691368729
0.6626684725429124
0.6626500037741012
0.6626201386513032
0.6625757569666056
0.6625154907387455
0.6624390900893854
0.662346142110131
0.6622360042570974
0.6621079206146866
0.6619610266292708
0.6617943279903761
0.661606693252034
0.6613968505811303
0.6611633823405851
0.6609047187052929
0.6606191313234657
0.6603047270574485
0.6599594420460233
0.6595810366003341
0.6591670915677513
0.6587150069912849
0.6582220041803617
0.6576851327088682
0.6571012843572308
0.6564672167487713
0.6557795903732554
0.6550350237172363
0.6542301735267414
0.6533618489105918
0.6524271742402452
0.6514238201081585
0.6503502860411432
0.6492062080455773
0.6479929471009447
0.6467147495040898
0.6453797309207878
0.6440009387552033
0.6425982725377835
0.6412008951028032
0.6398501470762851
0.6386029941280649
0.6375358811001145
0.636748510378229
0.6363668405530474
0.636544192616742
0.6374599057471755
0.6393122696653044
0.6423139694023972
0.6466644940118358
0.6526511996568396
0.662793534288354
0.6627762069523886
0.6627482278460588
0.6627066888125842
0.6626503307447693
0.6625789241737471
0.6624920841843791
0.6623892215773205
0.6622696488499067
0.6621325831297299
0.6619771278521046
0.6618022665047719
0.6616068603309972
0.661389644944547
0.6611492265827913
0.6608840788409255
0.6605925400865401
0.6602728118942671
0.6599229591017208
0.6595409122576287
0.6591244734550658
0.6586713268544623
0.6581790556366985
0.6576451676070503
0.6570671325017291
0.65644243475173
0.6557686470647074
0.6550435327649254
0.6542651847448535
0.6534322170369232
0.6525439977065016
0.6516008895175335
0.650604761418772
0.6495599249951777
0.6484736488104756
0.6473570589299745
0.646226564992338
0.6451054858961626
0.6440260875840342
0.6430319836793802
0.6421808026452681
0.6415469273368971
0.6412239057440718
0.6413259637766737
0.6419878001822829
0.6433624537781781
0.6456148274983324
0.6489190938693974
0.6534298034646419
0.6594015624724591
0.662926419843456
0.662910318624914
0.6628843549350629
0.6628458399482139
0.6627936230377843
0.6627275004527482
0.6626471219006973
0.6625519540394839
0.662441379085992
0.6623146976610115
0.6621711129997574
0.6620097259671033
0.6618295338522759
0.6616294288424357
0.6614081967199434
0.661164516496019
0.6608969612821877
0.6606040008253746
0.6602840063828778
0.6599352588131376
0.6595559610042512
0.6591442560996511
0.658698253395362
0.6582160642503802
0.6576958513320942
0.6571358948793476
0.6565346833876247
0.6558910343262913
0.6552042460402714
0.6544742892771276
0.6537020085059981
0.6528895398808144
0.6520410578562834
0.6511630382858804
0.6502650547440849
0.6493607510196966
0.6484690526251748
0.6476155932688027
0.6468344115281978
0.6461698581918065
0.6456785894394732
0.6454314404232652
0.645514850889687
0.6460314239517542
0.6470990193391101
0.6488483696252563
0.6514171139975706
0.6549494281798556
0.6595656918967988
0.6654945040767857
0.6630665612129982
0.6630517561201515
0.6630279150541301
0.6629925751407059
0.6629446935363043
0.6628840949105838
0.6628104690922952
0.6627233425547346
0.6626221700087196
0.6625063380841908
0.6623751521021768
0.6622278324748103
0.6620635147473126
0.6618812498880421
0.6616800053080338
0.6614586672444718
0.6612160448736684
0.6609508766492862
0.6606618396046855
0.6603475625683414
0.6600066444891529
0.6596376794366227
0.6592392901306378
0.6588101726101718
0.6583491556525355
0.6578552783434195
0.6573278946784988
0.6567667971268816
0.6561723601151203
0.6555457360470746
0.6548892138099124
0.6542067434957903
0.653504098041534
0.6527895380003462
0.6520745422133147
0.651374660565742
0.6507105693077135
0.650109293401256
0.6496055832986473
0.649243386867929
0.6490772911867766
0.6491737463946532
0.6496118092381898
0.6504831081867745
0.6518905912478878
0.6539462024112834
0.6567653470175097
0.6604684536794251
0.6651497082457116
0.6710165386471245
0.6632133654120737
0.6631999196913557
0.6631782992203218
0.6631462743021196
0.6631029099673829
0.6630480603395287
0.6629814584975693
0.6629026933399389
0.6628112938323834
0.6627067339086445
0.6625884219401015
0.6624556986318687
0.6623078383943365
0.6621440513846792
0.6619634866878392
0.661765237243349
0.6615483469299083
0.6613118203610079
0.6610546361721295
0.6607757647924951
0.6604741919053798
0.6601489492750023
0.659799154752835
0.6594240648598378
0.6590231427314324
0.6585961420299314
0.6581432130009597
0.6576650135732786
0.6571628923854619
0.6566392103539759
0.6560976188428559
0.6555432890291076
0.6549834049776626
0.6544277012030491
0.653889113253213
0.6533845462593485
0.6529357779766014
0.6525704749304188
0.6523232861759359
0.6522369503728027
0.6523633030442801
0.652764025715546
0.6535109313737462
0.6546855765451896
0.6563778657736928
0.6586839401165467
0.661701051100441
0.665530622816371
0.670246544360323
0.6760385480078914
0.6633662137244037
0.663354181094536
0.6633348646286724
0.6633062741841246
0.6632675826760435
0.6632186737557841
0.6631593255640169
0.6630891914085201
0.6630078761419314
0.66291494217833
0.6628099016460198
0.6626922158269474
0.6625612978791304
0.6624165165548093
0.6622572013857828
0.6620826499382091
0.6618921375759627
0.6616849303406214
0.6614603017104079
0.6612175542942698
0.6609560476520419
0.6606752341732866
0.6603747047673167
0.6600542477467521
0.6597139191657452
0.6593541228389327
0.6589757138414039
0.6585801648740763
0.6581698372324507
0.6577480934768158
0.6573195836248279
0.6568905910095481
0.6564694503518592
0.6560670345169242
0.6556973377385681
0.6553781478228798
0.6551318052543769
0.6549860294444056
0.6549747697200388
0.6551390167001401
0.655527476812652
0.6561969819953396
0.6572124755309536
0.6586464290925871
0.6605774205499143
0.6630882886155365
0.6662614084837989
0.6701828679641519
0.674910687840491
0.6806193959974899
0.6635244664532007
0.6635138926676135
0.6634969515068161
0.6634718981572868
0.6634380135820513
0.663395210592051
0.6633433131630706
0.6632820400009131
0.6632110726543073
0.663130062389095
0.6630386249122276
0.6629363413609344
0.6628227623612706
0.6626974133311825
0.6625598015088938
0.6624094253005733
0.6622457863897775
0.662068405313629
0.6618768411526066
0.661670716671497
0.6614497500143773
0.661213794689728
0.6609628885586457
0.6606973122356835
0.6604176561723185
0.6601249146817104
0.6598206499880424
0.6595071431245175
0.6591875040344192
0.6588659268073361
0.6585479489062362
0.6582407654639272
0.6579536105665259
0.6576981991321409
0.6574892378735618
0.6573450009010825
0.6572879584196485
0.6573454358692553
0.6575502620259175
0.6579413464831655
0.6585641048904595
0.6594706307053477
0.6607194910001231
0.6623750499141603
0.6645060881339003
0.6671842283880161
0.6704795967178144
0.674465805200259
0.6791883899572159
0.6848084799261964
0.6636874654789803
0.6636783880478709
0.6636638806514659
0.6636424486265259
0.6636134810026597
0.663576919052361
0.6635326326603727
0.663480406191548
0.6634199980827321
0.6633511482773431
0.6632735753178092
0.6631869788182546
0.6630910447928667
0.6629854524224854
0.6628698827470243
0.6627440298276914
0.6626076148586655
0.6624604041945317
0.6623022315743397
0.6621330263109246
0.6619528475649045
0.6617619246832258
0.6615607058195226
0.6613499153619494
0.6611306517783778
0.6609045220744262
0.6606736959404633
0.6604410674599263
0.6602104322564626
0.6599866994804485
0.6597761356586594
0.6595866575989424
0.6594281758552446
0.6593129870902152
0.6592562157795009
0.6592762989728723
0.6593954990394846
0.659640420274331
0.6600424912827871
0.6606383607449857
0.6614701391309271
0.6625854071884718
0.6640368968486653
0.6658817847055388
0.6681803917476296
0.6709948631971093
0.6743851885941604
0.6784147469425066
0.6831192094838546
0.6886476456621728
0.6638545376917012
0.6638469862801112
0.6638349588120281
0.6638172146361834
0.6637932507175269
0.6637630359030389
0.6637264855499641
0.6636834492918513
0.6636337619623998
0.663577251335615
0.6635137373583864
0.6634430359863456
0.6633649656684913
0.6632793554418693
0.6631860551247541
0.6630849480465573
0.6629759669509935
0.6628591143166896
0.6627344860435909
0.66260230049227
0.6624629327742227
0.6623169548896597
0.6621652000929363
0.6620088487788746
0.6618494817676418
0.6616891724410844
0.6615306195865313
0.6613772782533789
0.6612335270562613
0.6611048659981942
0.6609981455553623
0.660921833004313
0.6608863179932548
0.6609042557785244
0.6609909441680281
0.6611647258504002
0.661447400278829
0.6618646213294382
0.6624462467671812
0.6632265948646949
0.6642445531467956
0.6655434778498646
0.6671708111611852
0.6691773836836238
0.6716162136903248
0.6745414166004637
0.6780045527331133
0.6820605370280829
0.6867372238314737
0.6921726472698275
0.6640249980673577
0.6640189946133965
0.664009481036703
0.6639954735250737
0.6639765766193342
0.6639527857105321
0.6639240608152935
0.6638903159374629
0.663851461240715
0.6638074108889052
0.663758084189407
0.6637034106324621
0.6636433374127917
0.663577838785736
0.6635069276354759
0.6634306694201301
0.6633491992388706
0.6632627432407788
0.6631716422132388
0.6630763813467322
0.6629776339481284
0.6628763188355556
0.6627736381617835
0.6626711433214858
0.6625708241113316
0.662475195262122
0.6623874163328886
0.6623114205275639
0.6622520720782381
0.6622153491782691
0.6622085539992817
0.6622405520691574
0.6623220413476565
0.6624658484796591
0.6626872464692283
0.6630042841791295
0.6634381121392224
0.6640132824939496
0.6647579933909157
0.6657042404531278
0.6668878308571409
0.668348212769989
0.6701280635595148
0.67227262427654
0.6748286053614182
0.6778432982965572
0.681361220649998
0.6854302286999944
0.6900719735006158
0.6954142639183293
0.6641981528572174
0.6641937117864631
0.6641867341563139
0.6641764947838058
0.6641627051769734
0.6641453861368741
0.6641245412291354
0.6641001475013574
0.6640721888637376
0.6640406638853305
0.664005588659733
0.6639670028958645
0.6639249783470168
0.6638796292050611
0.6638311244507393
0.6637797023092199
0.6637256880616127
0.6636695172000745
0.6636117652847461
0.6635531840549934
0.6634947302706252
0.6634376141307907
0.6633833597141724
0.6633338660719613
0.6632914886998753
0.6632591275053465
0.6632403375471626
0.6632394537157372
0.663261736221095
0.6633135380760626
0.6634024951030556
0.66353773866975
0.6637301301184994
0.6639925135028455
0.6643399801325225
0.6647901349145806
0.6653633498415643
0.6660829846760155
0.6669755492801676
0.6680707767041302
0.6694015713567014
0.6710037962367436
0.6729158551513996
0.6751780719218671
0.677831701958409
0.6809182184607722
0.6844762273683216
0.6885476512831998
0.6931492182089705
0.6983991757402076
0.6643733026615726
0.6643704310388435
0.6643659997443235
0.664359542986444
0.6643508783628046
0.6643400508765686
0.6643271063136157
0.6643120831260495
0.6642950370043589
0.6642760484924451
0.6642552273381115
0.6642327194104388
0.6642087157973247
0.6641834638300249
0.6641572801315349
0.6641305679939871
0.6641038388462341
0.6640777311256155
0.6640530384400994
0.6640307432827672
0.6640120580211559
0.6639984678714965
0.6639917881708297
0.6639942265280053
0.6640084594165894
0.6640377188860139
0.6640858948936627
0.6641576525929499
0.6642585662289613
0.6643952709958398
0.6645756329108974
0.6648089358731782
0.665106083865261
0.665479814271443
0.6659449156052522
0.6665184398506807
0.6672198959508541
0.668071406885457
0.6690978086422498
0.6703266657687833
0.6717881750709218
0.6735149302820559
0.6755415132064729
0.6779039236282504
0.6806386918742016
0.683782313242732
0.687368408985654
0.6914338753523556
0.6959915392980446
0.7011506511924579
0.6645497456168569
0.6645484433979369
0.6645465575358078
0.664543881391269
0.6645403374934511
0.6645359937741697
0.6645309367111845
0.6645252641978973
0.6645191012613476
0.6645126073415885
0.6645059820535703
0.6644994733456744
0.6644933874977352
0.6644881002075194
0.6644840707963594
0.66448185862303
0.6644821430676376
0.6644857483230026
0.66449367039036
0.6645071093889979
0.6645275098942777
0.6645566047867661
0.6645964694735844
0.6646495833351822
0.6647189017462277
0.6648079388605584
0.6649208626959774
0.665062603567088
0.665238976232715
0.6654568163410847
0.6657241308037093
0.6660502606681815
0.6664460538334679
0.6669240432363032
0.6674986238991599
0.6681862196299282
0.6690054272527923
0.6699771231495774
0.6711245138867126
0.6724731103351559
0.6740506027492762
0.6758866165556713
0.6780123216735008
0.6804599147592703
0.6832618256245099
0.6864502757376403
0.69005466470043
0.6941075996682263
0.6986188267165825
0.703689094696092
0.6647267801272444
0.6647270401638613
0.6647276878297306
0.6647287743938873
0.664730325875598
0.6647324318566485
0.6647352179085247
0.6647388393325887
0.6647434880907948
0.6647493997843391
0.6647568606295177
0.66476621583065
0.6647778798978008
0.6647923490522493
0.6648102157581972
0.6648321856933408
0.6648590975706016
0.6648919477004143
0.6649319175333227
0.6649804057856853
0.6650390672222155
0.6651098563791301
0.6651950789725654
0.6652974510393999
0.6654201668235716
0.6655669764155253
0.6657422737124649
0.6659511955555192
0.6661997321271576
0.6664948485078718
0.6668446166025378
0.6672583556486823
0.6677467783370029
0.6683221380804305
0.6689983711166977
0.6697912250052115
0.6707183627903344
0.6717994297867352
0.6730560678085689
0.6745118602032659
0.6761921899233729
0.6781239957736523
0.6803354052358986
0.6828552679494522
0.6857124478701209
0.6889354842594674
0.6925501860666854
0.6965854749238203
0.7010486770246744
0.7060324885244236
0.6649037096190381
0.6649055196736294
0.664908680243615
0.6649134981503275
0.6649201011485997
0.6649285990995573
0.6649391548610111
0.6649519787504063
0.6649673266591778
0.6649855066227541
0.6650068869953372
0.6650319053768247
0.66506107915054
0.6650950181708914
0.6651344395744242
0.6651801850710048
0.665233240989953
0.6652947622528412
0.6653660998630865
0.665448832574686
0.6655448040536683
0.6656561654202579
0.6657854241438358
0.6659355000580333
0.6661097889818124
0.6663122347343918
0.6665474098891405
0.6668206056550556
0.6671379307791835
0.6675064189466539
0.6679341435507705
0.6684303378285884
0.6690055172836801
0.6696716000268782
0.6704420191416721
0.6713318194785243
0.6723577295071234
0.6735381971502999
0.6748933770491852
0.6764450558987832
0.6782165019138051
0.6802322277174311
0.6825176493081612
0.6850986680393885
0.6880010402004733
0.691250121569671
0.6948686546116666
0.698882373230173
0.7032967180858957
0.7081967492071387
0.6650798420666075
0.6650831838219676
0.665088826866965
0.6650973301279843
0.6651089210255732
0.6651237283065987
0.6651419502528592
0.6651638497544433
0.6651897436178549
0.6652200086539293
0.665255090909863
0.6652955150512788
0.6653418951249827
0.6653949473734625
0.6654555051688953
0.6655245363516356
0.6656031632611532
0.6656926861105023
0.6657946099328105
0.6659106754671429
0.6660428947456478
0.6661935917998235
0.6663654489478638
0.6665615593283981
0.6667854860612497
0.6670413284964155
0.6673337957528095
0.6676682875900416
0.6680509822983595
0.6684889308298406
0.6689901558207418
0.6695637533901401
0.6702199946612896
0.6709704228538932
0.6718279405490267
0.672806880381951
0.673923051062099
0.6751937493878396
0.6766377279422221
0.6782751078040858
0.6801272253864854
0.6822164058732968
0.6845656491543389
0.68719825667319
0.6901372703680384
0.6934052844347962
0.6970224123074867
0.7010116138586985
0.7053768770816975
0.7101960200807443
0.6652544928134478
0.6652593417164721
0.6652674270706133
0.6652795555784484
0.6652960520264952
0.6653170626516767
0.6653428192107159
0.6653736345695804
0.6654098832279238
0.6654520069033942
0.6655005247691009
0.6655560431834187
0.6656192665664066
0.6656910102472714
0.6657722153762168
0.6658639661148387
0.6659675094005866
0.6660842776946536
0.6662159150855638
0.6663643070732871
0.6665316145056956
0.6667203121279651
0.6669332320834056
0.6671736128084357
0.6674451536157782
0.6677520751917099
0.6680991860520786
0.6684919547744544
0.6689365875069675
0.6694401098189503
0.6700104514230991
0.6706565316303674
0.6713883425953455
0.6722170264904456
0.673154941737193
0.6742157123698781
0.6754142535878928
0.6767667656855623
0.6782906879294913
0.6800046039165589
0.6819280899450054
0.684081501276709
0.6864856846775339
0.6891616460991253
0.6921300514280394
0.6954110914806465
0.6990226173781464
0.7029851613349064
0.7073016095400061
0.7120429164899194
0.665426987769733
0.6654333132812796
0.6654437913512354
0.665459471326951
0.6654807729018594
0.6655078584518754
0.6655409912277661
0.6655805313962019
0.6656269078121619
0.6656806230947205
0.6657422648496688
0.6658125156722511
0.6658921640343156
0.6659821170740785
0.6660834153560969
0.6661972497565343
0.6663249807569828
0.666468160461129
0.6666285576768655
0.666808186370597
0.6670093378267156
0.6672346168770291
0.6674869824763116
0.6677697928961062
0.6680868557192066
0.668442482699161
0.6688415493836297
0.6692895591661173
0.6697927111304534
0.6703579706578716
0.6709931412822094
0.6717069356971321
0.6725090431400532
0.6734101896181686
0.6744221866323373
0.6755579632405957
0.6768315755509779
0.6782581871428278
0.6798540135595044
0.6816362241869474
0.6836227949600042
0.685832308577755
0.6882836925346479
0.6909959235163369
0.6939875830420822
0.6972767638577692
0.7008793636104961
0.7048137791200157
0.7090820790325567
0.7137487209854829
0.6655966659394857
0.6656044318355852
0.665617244080266
0.6656363887809381
0.6656623779734537
0.6656953888881716
0.665735714268053
0.6657837588352709
0.6658400023625458
0.6659050042678233
0.6659794158318944
0.6660639904197034
0.6661595942856767
0.6662672192104758
0.6663879969926694
0.6665232158994546
0.6666743393371048
0.6668430270125593
0.6670311588678126
0.6672408620541854
0.6674745412011606
0.6677349122400696
0.6680250399876881
0.6683483796429184
0.66870882226827
0.6691107442015313
0.6695590601787467
0.670059279726544
0.6706175661001227
0.6712407966894787
0.6719366233885076
0.6727135309208238
0.6735808905473525
0.67454900596097
0.6756291475317149
0.6768335704451852
0.6781755117331133
0.679669160812489
0.6813295979795968
0.6831726956073181
0.6852149769863987
0.6874734308245134
0.6899652732090636
0.6927076847081435
0.6957174146628887
0.6990107190341568
0.7026018032557994
0.7065071772067316
0.710728321688704
0.715323555224983
0.6657628818026574
0.6657720464409226
0.6657871258208684
0.665809636223973
0.6658401794071196
0.6658789462484392
0.6659262569597379
0.6659825580021858
0.6660483765355997
0.6661243246041375
0.6662111123901396
0.66630955860946
0.6664206011475137
0.6665453094479692
0.6666848986303687
0.6668407453952179
0.6670144059547274
0.6672076362306993
0.6674224145462904
0.667660967026689
0.6679257959027145
0.6682197108924344
0.6685458637903359
0.6689077863277745
0.6693094312823666
0.6697552166902577
0.6702500728547808
0.6707994916374163
0.6714095772584827
0.6720870975204707
0.6728395339946003
0.6736751292848813
0.6746029290120052
0.6756328156587038
0.6767755309154607
0.6780426826990643
0.6794467326338909
0.6810009595568167
0.6827193945655159
0.684616723506248
0.6867081530132552
0.6890092390824023