/*--------------------------------*- C++ -*----------------------------------*\
| =========                 |                                                 |
| \\      /  F ield         | OpenFOAM: The Open Source CFD Toolbox           |
|  \\    /   O peration     | Version:  v1912                                 |
|   \\  /    A nd           | Website:  www.openfoam.com                      |
|    \\/     M anipulation  |                                                 |
\*---------------------------------------------------------------------------*/
FoamFile
{
    version     2.0;
    format      ascii;
    class       volScalarField;
    location    "1000";
    object      p;
}
// * * * * * * * * * * * * * * * * * * * * * * * * * * * * * * * * * * * * * //

dimensions      [1 -1 -2 0 0 0 0];


internalField   nonuniform List<scalar> 
7500
(
74526.987967901
74528.25956116387
74530.87752848375
74534.82217679724
74540.15374735223
74546.90344861062
74555.11932541986
74564.86667179274
74576.22318976239
74589.27846644011
74604.13604613149
74620.91472654991
74639.74964941815
74660.79385946634
74684.2199805229
74710.22216578695
74739.01838389342
74770.8530607593
74806.00014360202
74844.76666587499
74887.49690396806
74934.57723990943
74986.44187257653
75043.57955527662
75106.5415837675
75175.95131922164
75252.51561028195
75337.03858451052
75430.43842252957
75533.76792295744
75648.23993487959
75775.25910970723
75916.46195615359
76073.76795134076
76249.44558809396
76446.19914348748
76667.28431110362
76916.66752571035
77199.24113195667
77521.13357657462
77890.15855755923
78316.5435600846
78814.0791436135
79401.56486978718
80105.54010521012
80967.93987739609
82044.51915809189
83452.16205870429
85221.27444490595
85958.73653634777
74526.14116834942
74527.4662946098
74530.00949333023
74533.90654060559
74539.19772625173
74545.89900955652
74554.06142992005
74563.75399433613
74575.04802483284
74588.03018513015
74602.80373644318
74619.48652477395
74638.21251661445
74659.13343163421
74682.42034224734
74708.26558973672
74736.88502753127
74768.52060689272
74803.44337222489
74841.95694078844
74884.4015531538
74931.15880271675
74982.65717880079
75039.37859050182
75101.8660808174
75170.73299564661
75246.6739442213
75330.47798261567
75423.04457881695
75525.40308872929
75638.73670506685
75764.41216096481
75904.01691311829
76059.40614266277
76232.76276378459
76426.67471259384
76644.23642956125
76889.18818563115
77166.0937498689
77480.59030306098
77839.72878023188
78252.49478931207
78730.58584330634
79289.12840753286
79947.25020183486
80728.49880971851
81642.4464890907
82654.07121353713
83739.42601810367
83763.51011690668
74524.65464348203
74526.08702447248
74528.60332174269
74532.47254559386
74537.73049513875
74544.37633965988
74552.46459197639
74562.06330500977
74573.2481515343
74586.1068310148
74600.74059842326
74617.26543299976
74635.81334794957
74656.53381219499
74679.59531353103
74705.1872150009
74733.52191695661
74764.83734831167
74799.39984774536
74837.50750292599
74879.49402667789
74925.73326842469
74976.64448213753
75032.69850012187
75094.424997938
75162.42108165746
75237.3614874784
75320.01075957635
75411.23787035108
75512.03387500698
75623.53335869583
75747.04065054061
75884.0620571334
76036.34571442247
76205.93097755016
76395.20983216351
76607.00604767638
76844.677205756
77112.22649749584
77414.45013942168
77757.10321606578
78147.13241807022
78592.96452466445
79104.38684352771
79690.31190722564
80355.48684035476
81088.17360517516
81803.52285327269
82528.06041722205
82478.42907675132
74522.39835491542
74523.85506853243
74526.29293595922
74530.07233113002
74535.25547554168
74541.81588855576
74549.79883937644
74559.27102616099
74570.30458856245
74582.98480306761
74597.41151295179
74613.69879113864
74631.97605090812
74652.38959158772
74675.10413967654
74700.30461708117
74728.19820043443
74759.01668219996
74793.01918552603
74830.49529481938
74871.76867061609
74917.20123261053
74967.1980128906
75022.21280295306
75082.75474495633
75149.39605103142
75222.78107577069
75303.63701825257
75392.78659351208
75491.16309219885
75599.82834460435
75719.9942269079
75853.04849555669
76000.58594856829
76164.44593258071
76346.75686684376
76549.98518396221
76776.96790392541
77030.99780007728
77315.84600391591
77635.77271507852
77995.42035497497
78399.47542397371
78851.38726320592
79350.37240967363
79886.39254097705
80434.42100658696
80891.7847642915
81285.77220768112
81088.02219100793
74519.46484995038
74520.97454552051
74523.39517064486
74527.10099592323
74532.18961581425
74538.63110560631
74546.46517170862
74555.75968811383
74566.58638742348
74579.02840466927
74593.18273892379
74609.16018047293
74627.08643585032
74647.10354184741
74669.37128185543
74694.06883414566
74721.39669010845
74751.57884276762
74784.86529002336
74821.53490466587
74861.89872633939
74906.30374174283
74955.13723196273
75008.83177955053
75067.87104389747
75132.79643134616
75204.21480550333
75282.80740184381
75369.34012565405
75464.67541755087
75569.78585425702
75685.76959639299
75813.86766136682
75955.48279874917
76112.19960296487
76285.80476229513
76478.30503419564
76691.93683469783
76929.13697491937
77192.5130005644
77484.76442913357
77808.26277535231
78163.85464865473
78549.89160777537
78959.09521323466
79373.31934778603
79764.72222206803
80045.08951374404
80211.99669219062
79959.40034472077
74515.81044344579
74517.31151570493
74519.67309931687
74523.26584560212
74528.21877779892
74534.50738217481
74542.16030634569
74551.24014753694
74561.81510984994
74573.9644884755
74587.78173309893
74603.37384363198
74620.86206613004
74640.38321326512
74662.0909859899
74686.15746903745
74712.77487095181
74742.15750297514
74774.54402543258
74810.20000113483
74849.42079574152
74892.53487103024
74939.90752367361
74991.94512786913
75049.09994531245
75111.87556949975
75180.83307108616
75256.59790365768
75339.86760891719
75431.42031640193
75532.12394427959
75642.94583995939
75764.96226609644
75899.3665372289
76047.47366222358
76210.71761547787
76390.63295756647
76588.82057816064
76806.87118621773
77046.29041278767
77308.10865713302
77592.23002868803
77896.77612142482
78216.38802320071
78539.93470521942
78845.89996303011
79106.57524116494
79254.9343576363
79267.36216327577
78974.42768470358
74511.48635931058
74512.98323337706
74515.30641475307
74518.8046510117
74523.61733819419
74529.73026049591
74537.1677911688
74545.98970072041
74556.26281017403
74568.06340847263
74581.48095858087
74596.61791680286
74613.59027359547
74632.52873640697
74653.57992523283
74676.90770487042
74702.6947299586
74731.14418961926
74762.48176701188
74796.95784067005
74834.84995112088
74876.46555657822
74922.14510134928
74972.26541706843
75027.24346918013
75087.54044700779
75153.66617120901
75226.18375186135
75305.7143654307
75392.94191612977
75488.61718629042
75593.56083954038
75708.66425602665
75834.88658478654
75973.24507313989
76124.79355727384
76290.58037730472
76471.59126432092
76668.658929906
76882.2154990995
77111.73551907649
77355.39683352011
77609.18727555625
77865.43641419
78111.2755951845
78325.17825325354
78481.0820243255
78530.23156626592
78441.44127858368
78113.34013210543
74506.49130987283
74507.95269316637
74510.20727196193
74513.58299580477
74518.22197469088
74524.12212016359
74531.30607066967
74539.82841078439
74549.75225906272
74561.14965614449
74574.10513457579
74588.7157506268
74605.09136408987
74623.3556186955
74643.64699378241
74666.11994721256
74690.9462316687
74718.31637381157
74748.44131613156
74781.55423298164
74817.91252760112
74857.80001246558
74901.52926944506
74949.44417545359
75001.92256183289
75059.37894872262
75122.2672532476
75191.08330539256
75266.36690411202
75348.70298876382
75438.72126518108
75537.09327810725
75644.52534478559
75761.74489930116
75889.47586137873
76028.39971279308
76179.10079157489
76342.00002623307
76517.17576847188
76703.96742086046
76900.81122469013
77104.58270259139
77309.86495615885
77507.82753692656
77685.27702435324
77822.37911963483
77895.52412876506
77869.20570818277
77713.22367466772
77358.5396399962
74500.85715311009
74502.27862407155
74504.4627293805
74507.71716647557
74512.17777367303
74517.84939800575
74524.75468034756
74532.94428396781
74542.4781596886
74553.4245738303
74565.86315530635
74579.88525067705
74595.59413403158
74613.10580145034
74632.54987204811
74654.07054792816
74677.8277011757
74703.99807859935
74732.77661172085
74764.37782864179
74799.03735768954
74837.01350306398
74878.58886060053
74924.07192318779
74973.79859820087
75028.1335201132
75087.47098390751
75152.23524426259
75222.87980273073
75299.88513512909
75383.75408117668
75475.00371834
75574.15177770246
75681.69469236463
75798.07473072677
75923.63556813238
76058.56475878471
76202.74814080003
76355.50927794584
76515.48964446533
76680.27392793303
76845.85806521318
77006.05606274589
77151.69402969372
77270.06559427398
77343.6705161701
77351.80459503489
77267.79675243361
77066.07228083002
76693.77227112556
74494.60219484869
74495.96915719419
74498.06407074131
74501.17651825304
74505.43424934888
74510.84671926656
74517.43765495879
74525.25430278439
74534.35274480244
74544.79682155939
74556.66067174125
74570.02925784359
74584.99854142683
74601.67609774186
74620.18185138601
74640.64884319114
74663.22407587657
74688.06943245727
74715.36264589113
74745.29830237273
74778.08885274736
74813.96559305768
74853.1795582078
74896.00224770505
74942.72606777576
74993.66432327057
75049.1505216821
75109.5366548021
75175.18997126201
75246.48758206848
75323.8079508009
75407.51774142809
75497.95185442132
75595.38580603902
75700.00079119307
75811.83824595617
75930.69467261295
76055.92916689983
76186.39204271279
76320.15709033352
76454.21163177778
76584.03916448343
76703.16138432056
76802.59491642765
76870.55240132273
76891.88046683224
76848.84554305147
76720.66824225953
76486.98039303785
76104.47081869317
74487.75597595185
74489.06220341787
74491.05982395983
74494.02136485602
74498.06538195345
74503.2026078599
74509.45686401389
74516.87217370729
74525.50062383857
74535.40148867774
74546.643290808
74559.30436045818
74573.47299737016
74589.24792518758
74606.73885354292
74626.06705102469
74647.36595151774
74670.78178529655
74696.4742059571
74724.61688263038
74755.39801738375
74789.02073119304
74825.70324114844
74865.67872149964
74909.19470329567
74956.51180760661
75007.90153851092
75063.64275832399
75124.01630603494
75189.29706092062
75259.74226559643
75335.5745005847
75416.95946023936
75503.97710206453
75596.58664154366
75694.53070623755
75797.22335236664
75903.69174910487
76012.39044595779
76120.98632287559
76226.1004643042
76322.98751893663
76405.20372321483
76464.263981179
76489.48785319096
76467.84344873
76384.35539961797
76222.36356924431
75965.9989996191
75578.65855016405
74480.34657979514
74481.58353622269
74483.47186597287
74486.26705156756
74490.07858908788
74494.91713719707
74500.80604210967
74507.78633164294
74515.90604214682
74525.21963623603
74535.78975547687
74547.68775355454
74560.99384594892
74575.7974343198
74592.19750308941
74610.30300261189
74630.23322258405
74652.11814310537
74676.09872945301
74702.32712946544
74730.96672096309
74762.19193757378
74796.18777761
74833.14886583085
74873.27789873812
74916.78323328456
74963.87532794104
75014.76160062892
75069.63912013704
75128.68435350234
75192.03859144534
75259.78971825163
75331.95028680329
75408.42952136717
75488.95546013002
75573.00395638187
75659.7449980965
75747.92130850493
75835.69761454288
75920.48078346548
75998.70949533964
76065.61667421563
76115.00103934774
76139.02640276783
76128.15708453659
76071.20193508838
75955.58948518334
75767.71898723327
75495.23684720509
75106.71189514983
74472.40633674468
74473.56803981875
74475.33867586171
74477.95646614993
74481.52208798927
74486.04518868192
74491.54770139926
74498.06735928671
74505.64793567926
74514.3388280517
74524.19657673928
74535.28532550608
74547.67693022663
74561.45115994375
74576.69592898092
74593.5074908145
74611.99058427686
74632.25851316644
74654.43312064881
74678.64460890896
74705.03114141652
74733.73814456785
74764.91719988077
74798.72438297812
74835.3178658347
74874.8545238308
74917.48525726092
74963.34848053263
75012.56130528644
75065.20761994006
75121.32298382909
75180.87649477695
75243.75085863371
75309.66900952662
75378.16443543648
75448.53200146499
75519.73455259654
75590.30302148548
75658.21015701683
75720.72178107779
75774.23247622192
75814.09515502278
75834.47121470855
75828.22517164242
75786.91825896838
75700.93490822458
75559.72451844894
75352.06442597724
75068.2709306201
74681.02660713402
74463.96888514381
74465.04935236643
74466.69366246439
74469.12218879578
74472.42694544484
74476.61621685971
74481.70998176436
74487.74246840522
74494.75308498995
74502.78602774683
74511.89159474976
74522.12656106832
74533.55423032604
74546.24452317051
74560.27405713817
74575.7261612498
74592.69080814272
74611.26443900651
74631.54963855754
74653.65460423243
74677.69233874649
74703.77947460553
74732.03460989363
74762.57601097717
74795.51847375228
74830.96908652147
74869.02155850791
74909.74849414997
74953.19181783927
74999.35081144838
75048.16608144497
75099.50565012102
75153.1004805969
75208.53806581665
75265.21151859949
75322.25897515268
75378.48701907042
75432.28238830635
75481.50660256733
75523.37720960412
75554.34360396642
75569.96858690352
75564.83565140258
75532.50477594043
75465.54386415587
75355.68046563076
75194.03446173653
74971.27573727634
74679.75869909819
74295.47630478264
74455.07019391321
74456.0644903785
74457.57533088631
74459.80468951512
74462.83604392387
74466.67618086404
74471.34272153725
74476.8660945661
74483.28114295063
74490.62668214815
74498.94661060322
74508.29019129385
74518.71203123158
74530.27205851898
74543.03545720695
74557.07251109638
74572.45833445617
74589.27246041357
74607.59824008906
74627.52199326939
74649.13183263496
74672.51607015282
74697.76106898356
74724.94841962414
74754.15114739396
74785.42880826815
74818.82100307837
74854.33919701022
74891.957870256
74931.60056677503
74973.12576489877
75016.27895537713
75060.69350352207
75105.84664243301
75151.01264191643
75195.21025693566
75237.13650336489
75275.09030707508
75306.8865736554
75329.76385979712
75340.29320562197
75334.29885388911
75306.80592631594
75252.03424302475
75163.45284741823
75033.93250570097
74855.96755509744
74621.74851564408
74325.20898327534
73945.04248156751
74445.7478419985
74446.65153556124
74448.02241216267
74450.04345163933
74452.7896291435
74456.26620936072
74460.48823937852
74465.48215299945
74471.27809161515
74477.90938719347
74485.41346211138
74493.8320094247
74503.21089213954
74513.60001143244
74525.05310607917
74537.62743778653
74551.38333661476
74566.38357441808
74582.69251453539
74600.37498058799
74619.49475531298
74640.11263438944
74662.28385045644
74686.05481856025
74711.45872997053
74738.51036304445
74767.19930365615
74797.48201995721
74829.27268814415
74862.42272036917
74896.69837456556
74931.7718342898
74967.18830229079
75002.33235741997
75036.38696044212
75068.28546589801
75096.65496635005
75119.75244748946
75135.39597675056
75140.89449504427
75132.98285628857
75107.77142168298
75060.72169796802
74986.6631839422
74879.86020340574
74734.15562435043
74543.17657913646
74300.34132991629
74000.82286688602
73625.55833656386
74436.04104073292
74436.85037764198
74438.07576952291
74439.88067164471
74442.33157679935
74445.4322612563
74449.19508559399
74453.64234978946
74458.79937177167
74464.69390789988
74471.35684557637
74478.82227884434
74487.12732447668
74496.31188485562
74506.41832127393
74517.4909935511
74529.57563766373
74542.71854778948
74556.96550542736
74572.36041014941
74588.94349108454
74606.74907563362
74625.80261326392
74646.11713838446
74667.68847832229
74690.49058131581
74714.46761318127
74739.52776444139
74765.52036754072
74792.2316776251
74819.36688874091
74846.52831332361
74873.18869054971
74898.660798874
74922.06069064651
74942.26540852955
74957.86519924518
74967.11126844495
74967.86168738759
74957.52916700946
74933.03636827576
74890.78644027073
74826.65762139547
74736.03351288295
74613.87474205375
74454.8503176588
74253.52473105001
74004.31244200069
73703.3671337211
73333.52671726228
74425.9903443134
74426.70213533803
74427.77732976347
74429.35937848987
74431.50629047993
74434.22040736653
74437.51136292912
74441.39725702423
74445.89852020713
74451.03729479639
74456.837931202
74463.3269584518
74470.53281723775
74478.48552248254
74487.21622053417
74496.75659651379
74507.13810493411
74518.39098485545
74530.54299695005
74543.61785849954
74557.63318094629
74572.59804359649
74588.50972113304
74605.35022942771
74623.08140050645
74641.64003755835
74660.92794178693
74680.7993885544
74701.0572768183
74721.43586619834
74741.5844409773
74761.04767766313
74779.24146845803
74795.42509811358
74808.66900043117
74817.81836252732
74821.45330013901
74817.84684548655
74804.92323142551
74780.21998814221
74740.85864114187
74683.53022270865
74604.50240774085
74499.65703308961
74364.56175251122
74194.5877956217
73985.07866218845
73731.26218864511
73430.07193202701
73065.98564559904
74415.63748475691
74416.24911817031
74417.17025012815
74418.52392423298
74420.35966808799
74422.67845675728
74425.48720272345
74428.79979144679
74432.63174721057
74436.99959835385
74441.92119428497
74447.41557555045
74453.50262774313
74460.20265098757
74467.53581265149
74475.52143680639
74484.17711237675
74493.51755597051
74503.55317805946
74514.28836486152
74525.71919388026
74537.83102282716
74550.59521070319
74563.96518754157
74577.87230007829
74592.21404193307
74606.85267296121
74621.60467386813
74636.22959299342
74650.41644646079
74663.76840327209
74675.78432142582
74685.83699259622
74693.14831712077
74696.76132659896
74695.5093656442
74687.98335941146
74672.49855564209
74647.06299867942
74609.350869028
74556.68469411961
74486.03139495722
74394.01740232644
74276.96940518945
74130.98309599562
73952.0272013112
73736.09530703224
73479.08405640667
73178.54926519022
72820.40593556831
74405.0251567235
74405.53456692011
74406.29857896763
74407.41950520031
74408.93840166868
74410.85495083933
74413.17338021878
74415.90338983072
74419.05562571775
74422.64104806232
74426.67108688012
74431.15741970167
74436.11155365307
74441.5443103295
74447.46518501273
74453.88152927929
74460.79756016754
74468.21307377111
74476.12190630099
74484.51017610286
74493.35396662453
74502.61669001341
74512.24591927616
74522.16674559994
74532.27854535867
74542.44998649208
74552.50991018987
74562.23930014954
74571.36070094428
74579.52564261921
74586.30014708117
74591.14787353194
74593.41073741054
74592.28709839433
74586.80775859892
74575.81022307731
74557.9121698173
74531.48553501681
74494.63323599187
74445.17123114332
74380.61923026471
74298.20399922969
74194.87925384143
74067.36703012681
73912.22193512344
73725.9219749628
73505.00540709814
73245.92283044786
72946.72773202966
72594.61171810137
74394.19682253481
74394.60247883435
74395.20711115963
74396.0920617964
74397.2899397944
74398.79921300647
74400.62148198934
74402.76232267832
74405.22756951315
74408.02270049462
74411.15284852052
74414.62249695109
74418.43499853791
74422.59198060051
74427.09261849246
74431.93273130314
74437.10373755032
74442.59126883783
74448.37365411593
74454.41993782404
74460.68768959155
74467.11857417182
74473.63613947957
74480.14210911891
74486.51014473189
74492.58085896293
74498.15388036132
74502.97983092751
74506.75033998334
74509.08642493024
74509.52516106042
74507.50447563436
74502.34602324448
74493.2362737084
74479.20616037092
74459.10984185015
74431.60349969618
74395.12550038344
74347.87970803467
74287.82423158924
74212.66831775769
74119.88050605335
74006.71106936393
73870.23234815281
73707.39776859777
73515.1204106325
73290.39671189013
73030.13942535895
72732.80062224911
72386.71847534055
74383.19651071967
74383.49740039256
74383.94116922283
74384.58803656379
74385.46220660035
74386.56101270996
74387.88350295826
74389.4312167317
74391.20527696876
74393.20580153375
74395.43178350148
74397.88071494394
74400.54805290673
74403.426557492
74406.50551016704
74409.76977691917
74413.19870616629
74416.76460614239
74420.43111687765
74424.15048932312
74427.86191955626
74431.48870205847
74434.93406332869
74438.07759283361
74440.76980431641
74442.82676353195
74444.02295202669
74444.08337560319
74442.67433017137
74439.39275004269
74433.75410917579
74425.1788550482
74412.97742388475
74396.33402289955
74374.28956645586
74345.72435915274
74309.34140171765
74263.65152634293
74206.9619158469
74137.36991755791
74052.76435020787
73950.83675116627
73829.10483153515
73684.95076845243
73515.67477836899
73318.56259565846
73090.997645868
72830.28098273223
72535.18398403782
72195.0839953995
74372.0686210243
74372.26423726733
74372.54641749831
74372.95419066345
74373.50341817703
74374.19037995901
74375.0116576405
74375.96486030777
74377.046524152
74378.25155813103
74379.57300874796
74381.00162870559
74382.52530247529
74384.12833468048
74385.79060450647
74387.48659669161
74389.18383170228
74390.84179513773
74392.41007424209
74393.82636951088
74395.01368140204
74395.87779167219
74396.30346018386
74396.15059788452
74395.24932305004
74393.39449520076
74390.33919792209
74385.78727189203
74379.38479314382
74370.71039086288
74359.26439474222
74344.456856825
74325.59456215182
74301.86725920846
74272.33350899495
74235.90674054431
74191.3423258047
74137.22674524228
74071.97017815079
73993.8041031997
73900.78567762054
73790.81080414407
73661.63757038837
73510.9219421446
73336.26599706514
73135.27556737007
72905.6622690082
72645.05566041944
72352.48264319648
72018.26930573146
74360.85772300362
74360.9480465361
74361.06864655454
74361.23737723693
74361.46184068272
74361.73734532038
74362.05810312853
74362.41791837141
74362.80889454325
74363.22092046821
74363.64132969227
74364.05440421394
74364.44070415436
74364.77638979846
74365.03231207324
74365.17294003555
74365.15515703449
74364.92665004528
74364.42415805632
74363.57151959023
74362.2769966558
74360.43057478563
74357.90046855141
74354.52923569203
74350.12918810331
74344.47712127888
74337.30826269653
74328.3093515576
74317.1108394797
74303.27816314141
74286.30210174827
74265.58830037943
74240.44611364791
74210.07702690875
74173.56305062177
74129.85564540072
74077.76591656257
74015.95701530865
73942.93987843934
73857.07361239969
73756.57193454035
73639.5171503883
73503.88290665732
73347.56703269054
73168.43472328779
72964.36758432796
72733.35668358048
72473.31135969902
72183.46246680213
71855.00725690516
74349.60837978256
74349.59387962821
74349.55362327877
74349.48439011931
74349.38562918882
74349.25175709113
74349.07471561759
74348.84463304619
74348.54933188984
74348.17385868802
74347.70004159361
74347.10595750736
74346.3652869654
74345.44652005598
74344.31204030714
74342.91702263027
74341.20820793795
74339.1223283391
74336.58433223776
74333.50538697191
74329.7803744234
74325.28512707462
74319.87315261007
74313.37186398068
74305.57825758656
74296.25395567396
74285.11959317274
74271.84847671869
74256.05951233418
74237.30940181957
74215.08414792297
74188.78997135037
74157.74381510762
74121.16370288657
74078.15933285125
74027.72342171533
73968.72445892906
73899.90168142648
73819.86322063512
73727.0884898731
73619.93593398132
73496.65727841624
73355.41918105871
73194.3331699807
73011.49416061194
72805.02207110781
72573.14686114513
72314.01768876401
72027.02749164375
71704.1769675488
74338.36486069925
74338.24635765982
74338.04653684978
74337.74129008477
74337.32204093493
74336.7823955207
74336.11213482564
74335.29785931853
74334.32329653534
74333.16887782561
74331.81120249792
74330.22246741751
74328.36980391946
74326.21446734338
74323.71090039521
74320.8056216813
74317.43596375159
74313.52854601438
74308.99751383308
74303.7425357077
74297.64643054563
74290.57245537308
74282.36119175836
74272.82696752429
74261.75379643377
74248.89077142018
74233.94689512283
74216.58531499055
74196.41696561208
74172.99364624014
74145.80059658529
74114.24868828224
74077.66641594219
74035.29195163649
73986.26562184254
73929.62327387399
73864.29111298884
73789.08270450574
73702.69893515902
73603.73180205426
73490.67291484034
73361.92757920342
73215.83511290597
73050.69595613545
72864.80594864961
72656.49158115583
72424.1878155155
72166.25064322235
71882.2009900589
71564.78294336761
74327.17115147808
74326.94988028392
74326.59241631035
74326.05403969384
74325.31830071482
74324.37807636913
74323.22109960071
74321.83059553927
74320.18638608033
74318.26451720791
74316.03663699208
74313.46939407542
74310.5237585147
74307.1542051838
74303.30776480256
74298.9229162483
74293.92831374606
74288.24129896339
74281.76618009621
74274.39226433556
74265.99158916899
74256.41632112517
74245.49580105788
74233.03318345826
74218.80165004294
74202.54016236855
74183.94873963333
74162.68325478972
74138.34976380297
74110.49841202535
74078.61699618318
74042.12430761478
74000.36344088196
73952.59532061915
73897.99277816301
73835.63559584004
73764.50702534268
73683.49237033
73591.38029189956
73486.86753902517
73368.56779928238
73235.02532744007
73084.7338161502
72916.16083230609
72727.77828467064
72518.09226593212
72285.71430275131
72029.17980740982
71748.10986801432
71435.937936081
74316.07078042766
74315.74840602267
74315.23585762383
74314.46815297104
74313.42113913625
74312.0870424179
74310.45166362706
74308.4950125407
74306.19320592417
74303.51814646173
74300.4368170794
74296.91065474554
74292.89486327964
74288.33759524563
74283.17900140662
74277.35013394608
74270.77168603866
74263.35254134735
74254.98810733781
74245.55841242362
74234.92593870022
74222.93315524001
74209.39973385866
74194.11941511743
74176.85650525965
74157.34198701716
74135.26923853885
74110.28936870056
74082.00619580835
74049.97092385015
74013.67660342515
73972.55250590605
73925.95858972773
73873.1802957844
73813.42397338514
73745.81330658543
73669.38717837886
73583.09947096156
73485.82134532509
73376.34656506551
73253.40040750582
73115.65265615299
72961.73500133429
72790.2629984357
72599.86314016981
72389.19813218342
72157.03210390838
71902.05695606592
71623.97121248159
71316.84849067367
74305.10661753171
74304.68521554724
74304.02075546944
74303.02840907773
74301.67650309116
74299.95668593212
74297.85294245147
74295.34223087884
74292.39717026264
74288.98577081671
74285.07064521314
74280.60836156194
74275.54875549916
74269.83411516245
74263.39823818674
74256.16535328163
74248.04888754556
74238.95005972931
74228.75627671895
74217.33931244403
74204.55324926
74190.23215569429
74174.18748294321
74156.20516108912
74136.04238150426
74113.42405924838
74088.03897891496
74059.53564199716
74027.51785203061
73991.54009821331
73951.10282834593
73905.64773828059
73854.55324791983
73797.13038220879
73732.61932784371
73660.18699001595
73578.92592444566
73487.85506293153
73385.92267839824
73272.01204194895
73144.95019402217
73003.52019745264
72846.47709933085
72672.56762606419
72480.55424610645
72269.23661523842
72037.51118585735
71784.2070278133
71509.08154045262
71206.80322533724
74294.32071296974
74293.80275016658
74292.9901354433
74291.77867415053
74290.12936386721
74288.03334071295
74285.47288926241
74282.42208341768
74278.85025830558
74274.72178942655
74269.99521925583
74264.6225920274
74258.54877111973
74251.71063249807
74244.0361368093
74235.44327673031
74225.83888210739
74215.11726519903
74203.1586876535
74189.82763106799
74174.97085487397
74158.41522358339
74139.96528917797
74119.40061759131
74096.4728527478
74070.90251954098
74042.37557695679
74010.53974634956
73975.00065723663
73935.31787495421
73891.00090132259
73841.50527102864
73786.22890260923
73724.50890280952
73655.61906503064
73578.76834414
73493.10062761548
73397.69615242979
73291.57493232487
73173.70255654633
73042.99868654054
72898.34852168086
72738.61738895597
72562.66839372636
72369.38382514808
72157.68340950405
71926.57868480658
71675.01950440844
71402.80701837951
71105.16257490296
74283.75414468646
74283.14246217547
74282.18600692356
74280.76175596438
74278.823573078
74276.36213940724
74273.35815450958
74269.78297902882
74265.60288460663
74260.77887574617
74255.26572736204
74249.01130338306
74241.95588480118
74234.03137721836
74225.16040462763
74215.25528945122
74204.21690286738
74191.93336919553
74178.278609431
74163.11070938372
74146.27009939674
74127.57753350062
74106.83185844235
74083.80756718072
74058.25213646078
74029.88315570707
73998.38526427672
73963.40692695086
73924.5570936127
73881.40180872371
73833.46085967684
73780.20458018941
73721.05095517926
73655.3632061328
73582.44806927265
73501.55501064759
73411.87664962177
73312.55068148862
73202.66359631716
73081.25648112003
72947.33315671966
72799.87084676631
72637.83348256684
72460.18752249176
72265.92101667599
72054.05921777313
71823.71403354948
71573.94210045114
71304.57602404311
71011.35066751667
74273.44687578274
74272.74467346887
74271.64922151102
74270.01925861248
74267.80170838059
74264.98684475417
74261.55389765347
74257.47169055775
74252.70365925212
74247.20770562535
74240.93513929484
74233.82998229409
74225.82831331241
74216.85749498059
74206.83529523804
74195.6689061143
74183.25384495872
74169.47272338123
74154.19387184085
74137.26980881642
74118.53554486092
74097.80671375256
74074.87752566619
74049.51854150208
74021.47427287839
73990.46061958815
73956.1621657253
73918.22936752776
73876.27568055317
73829.87469122291
73778.55733810124
73721.80933127085
73659.06890329604
73589.72505161884
73513.11645839075
73428.53129776764
73335.20816004933
73232.33833376352
73119.06968707633
72994.51237610477
72857.74657279949
72707.83235427839
72543.82182110152
72364.77328712244
72169.76828583458
71957.92500960223
71728.44311521201
71480.4739769435
71213.87172386686
70924.84774363227
74263.43762161006
74262.64844878732
74261.41935518062
74259.5914768278
74257.10498471263
74253.94978606969
74250.10376186325
74245.53338462637
74240.19949146303
74234.05715341585
74227.05451310796
74219.13207936073
74210.22209415348
74200.24778545754
74189.12252161487
74176.74887397606
74163.01757343105
74147.80634759153
74130.97862917297
74112.38212764892
74091.84725768991
74069.18542015989
74044.18713443291
74016.62002494118
73986.22667024042
73952.72232983103
73915.79257275489
73875.09084280107
73830.23600817079