/*--------------------------------*- C++ -*----------------------------------*\
| =========                 |                                                 |
| \\      /  F ield         | OpenFOAM: The Open Source CFD Toolbox           |
|  \\    /   O peration     | Version:  v1912                                 |
|   \\  /    A nd           | Website:  www.openfoam.com                      |
|    \\/     M anipulation  |                                                 |
\*---------------------------------------------------------------------------*/
FoamFile
{
    version     2.0;
    format      ascii;
    class       volScalarField;
    location    "1000";
    object      rDeltaTau;
}
// * * * * * * * * * * * * * * * * * * * * * * * * * * * * * * * * * * * * * //

dimensions      [0 0 -1 0 0 0 0];


internalField   nonuniform List<scalar> 
7500
(
0.04342947401830764
0.04342933002202948
0.04342895950895313
0.04342836009917317
0.04342752395968776
0.04342644354075961
0.04342511087732801
0.04342351550379434
0.04342164465686691
0.04341948338860833
0.04341701436417792
0.04341421762547366
0.0434110703737443
0.04340754671442501
0.04340361735780589
0.04339924927459835
0.04339440529377246
0.04338904363400133
0.04338311735796471
0.04337657373509902
0.04336935349532974
0.04336138995219232
0.04335260796828465
0.04334292272903176
0.04333223828170685
0.04332044578474098
0.04330742139657404
0.04329302371212085
0.04327709062623869
0.04325943546418645
0.0432398421643546
0.04321805922138475
0.04319379198736065
0.04316669276586323
0.04313634789029544
0.04310226058299425
0.04306382790168062
0.04302030878960682
0.04297077966681244
0.04291406985326361
0.0428486659360568
0.04277256001802582
0.04268301626665024
0.04257615994794985
0.04244633290640622
0.04228419819244731
0.04207565455770254
0.04179002870536879
0.04261014135650405
0.04346234418363414
0.04342971221475648
0.04342973711090448
0.04342954491830075
0.0434291336078017
0.04342849047440698
0.04342761022697952
0.04342648657082614
0.04342511048270539
0.04342347140341931
0.04342155680124382
0.04341935160833009
0.04341683824748463
0.04341399654664572
0.04341080350846479
0.04340723305795956
0.0434032557537519
0.04339883844924737
0.04339394389930424
0.04338853030441089
0.04338255078146611
0.04337595274826672
0.04336867720600251
0.0433606579003387
0.04335182033711148
0.04334208062287762
0.0433313440931397
0.04331950368154405
0.04330643797100688
0.04329200885163054
0.0432760586891338
0.04325840687960633
0.0432388456295139
0.04321713475092594
0.04319299520118138
0.04316610102486317
0.04313606924015274
0.04310244733343063
0.04306469626374192
0.0430221702650825
0.04297409149525324
0.04291951900071798
0.04285731535632781
0.04278611613350007
0.04270435582278691
0.04261069962476233
0.04250494160190259
0.04239622245141521
0.04230186126876186
0.04346234418363414
0.04433159106730682
0.04343005483790373
0.0434302466266559
0.04343022304244989
0.04342999112636574
0.04342953614492931
0.0434288542953602
0.04342794093457332
0.0434267881669741
0.04342538655760489
0.04342372514816584
0.04342179104385956
0.04341956916199088
0.04341704205547291
0.04341418973537821
0.04341098946923272
0.04340741554748289
0.04340343901163351
0.04339902734047833
0.04339414408909588
0.04338874847360204
0.0433827948936177
0.04337623238298815
0.0433690039774873
0.04336104598620474
0.04335228715102323
0.04334264767598913
0.04333203810557275
0.0433203580280385
0.04330749457775367
0.04329332070917073
0.04327769321703259
0.0432604504852411
0.04324140996627782
0.04322036544217023
0.04319708418651229
0.04317130424004127
0.04314273291542414
0.04311104639223817
0.04307589517894177
0.04303691972834738
0.04299378400618799
0.04294625429877861
0.04289435019094363
0.04283875138628046
0.04278190549182226
0.04272956582840511
0.04269788275278652
0.04270547922931808
0.04397748346385166
0.04485703313312869
0.0434305344488267
0.04343090574929617
0.04343106400582449
0.04343101967119184
0.0434307580755275
0.04343027767685556
0.04342957692781353
0.0434286502110876
0.04342749022453659
0.04342608818666408
0.04342443342444633
0.0434225132914621
0.04342031309009536
0.04341781592370503
0.04341500253024769
0.04341185110275119
0.04340833708512294
0.04340443294022218
0.04340010788812403
0.04339532761130047
0.04339005392355963
0.04338424439975603
0.04337785196350764
0.0433708244307567
0.04336310400828423
0.04335462674853727
0.04334532196595692
0.0433351116263645
0.04332390973129236
0.04331162173570825
0.04329814406402711
0.04328336383088904
0.04326715893939449
0.0432493988361911
0.04322994639738268
0.04320866219998196
0.04318541371666815
0.04316009018696718
0.04313262731558602
0.04310305566961576
0.04307158276305394
0.04303876531003993
0.0430058165424737
0.04297515353458395
0.04295154484509799
0.04294351327310719
0.04296878296276706
0.04355897362049481
0.0444301530929047
0.0453187561547628
0.04343112457355607
0.04343166635980707
0.04343199863060679
0.04343213666927265
0.04343206784461038
0.04343179144778048
0.04343130757659189
0.04343061229511523
0.04342969997587605
0.04342856384065628
0.04342719554669298
0.04342558505268174
0.04342372054843009
0.04342158834777069
0.04341917277555296
0.04341645604848349
0.0434134181419303
0.04341003664286113
0.04340628658985801
0.04340214030079598
0.04339756719000273
0.04339253357834164
0.04338700250178818
0.04338093352720883
0.04337428258877835
0.04336700186544678
0.04335903973028373
0.04335034081821304
0.04334084628238958
0.04333049434561173
0.04331922130899374
0.04330696326568197
0.04329365890106213
0.04327925395341524
0.04326370819352853
0.0432470059971592
0.04322917248914621
0.04321030117254959
0.04319059606551556
0.04317043875940862
0.04315049609447662
0.04313194103619146
0.04311681652621587
0.04310853160138967
0.04311274952784739
0.04313801050177488
0.0431995251515467
0.04383904833003162
0.04471582929663225
0.0456101458825649
0.04343184225385394
0.04343255686034772
0.04343307001644761
0.04343339619698876
0.0434335240931211
0.04343345425662629
0.04343318906812129
0.04343272726717111
0.04343206560471537
0.04343119963312581
0.04343012346333678
0.04342882970566731
0.04342730948307254
0.04342555238463064
0.04342354640452305
0.04342127788399627
0.04341873145127107
0.04341588996080947
0.0434127344362765
0.04340924402191623
0.04340539594901588
0.04340116552704432
0.0433965261728449
0.0433914494965796
0.04338590547063244
0.04337986271828232
0.0433732889740437
0.0433661517892876
0.04335841958828652
0.04335006322615358
0.04334105827018894
0.04333138833190251
0.04332104995027174
0.04331005978153676
0.0432984653450248
0.04328636092703336
0.04327391083001989
0.04326138457746351
0.04324920932804403
0.04323805677101844
0.04322897308697048
0.0432235654969944
0.04322431974123407
0.04323500225908879
0.04326127870719528
0.04331071700942012
0.04339521578289152
0.04403826843986389
0.04491903380866117
0.0458174144848344
0.04343267301290302
0.04343355257018124
0.04343423915805284
0.04343474766094873
0.0434350687252984
0.04343520452852737
0.04343515904089298
0.04343493296394393
0.043434525031722
0.04343393292921761
0.04343315317687074
0.04343218106627875
0.0434310106940699
0.04342963496342557
0.04342804557631692
0.04342623303580558
0.04342418665715148
0.04342189459140859
0.04341934386875648
0.04341652046994299
0.0434134094369656
0.04340999503826842
0.04340626100908989
0.04340219089496425
0.04339776853659983
0.04339297874850091
0.04338780826348575
0.04338224704299985
0.04337629009221441
0.04336993997393148
0.04336321029422329
0.04335613053973762
0.04334875281548805
0.04334116123279334
0.04333348523406862
0.04332591841206496
0.04331874537803661
0.04331237909540057
0.04330742045478844
0.04330475077428953
0.04330565750752095
0.04331198216088222
0.04332636937806546
0.04335252970345373
0.04339561029845406
0.04346189339515121
0.04356021206028558
0.04418543909080246
0.04506914787261852
0.04597053083007089
0.04343362004501707
0.04343466269836892
0.04343552287773796
0.0434362150350082
0.04343673084494285
0.04343707379373193
0.04343724940207717
0.04343726051073242
0.04343710816133275
0.04343679240371772
0.04343631229254474
0.04343566587715959
0.04343485028246315
0.04343386176875702
0.04343269578163489
0.04343134701652449
0.04342980950176696
0.04342807670567127
0.04342614167739084
0.04342399723350103
0.04342163620537108
0.04341905176728676
0.04341623787166269
0.04341318982626675
0.04340990506012796
0.04340638414077039
0.04340263212758566
0.04339866037686847
0.04339448895727584
0.04339014989551022
0.04338569155916084
0.04338118459767801
0.04337673006069419
0.04337247048492205
0.0433686053231216
0.04336541131434203
0.04336327093667227
0.04336271265217564
0.04336447254965814
0.04336956901699864
0.04337940695044691
0.04339590193302603
0.04342165414312795
0.04346008446672606
0.0435156150422629
0.04359329163046515
0.04369942919596883
0.04429462485215307
0.04518051734919613
0.04608412769618006
0.04343467528632089
0.04343587505146152
0.04343690249851304
0.043437772658327
0.04343847857073304
0.04343902525094019
0.0434394197867551
0.04343966691335997
0.04343976976701833
0.04343973061963657
0.04343955095981404
0.04343923152895505
0.04343877243109508
0.04343817323866401
0.04343743309514308
0.04343655083716354
0.04343552514409406
0.04343435472285907
0.04343303853999778
0.04343157611573328
0.04342996789854923
0.04342821574432616
0.04342632353130797
0.04342429795179543
0.04342214953427616
0.04341989396672522
0.04341755381499345
0.04341516076067488
0.04341275852495608
0.04341040670164233
0.04340818579912011
0.04340620389379325
0.04340460550918436
0.04340358336874849
0.04340339419396846
0.04340437863065202
0.04340699221244743
0.04341184781389014
0.04341976525182183
0.04343182897525899
0.04344947544566421
0.04347458463789618
0.0435095828981885
0.04355749502215481
0.04362199935694461
0.04370709294582872
0.0438172153473205
0.04395617883016362
0.04526137932399481
0.04616660691047471
0.04343583601766314
0.04343718850135322
0.04343837964846859
0.04343942516850636
0.04344031943452151
0.04344106870729064
0.04344168147251865
0.04344216423916678
0.04344252220984034
0.04344275990532896
0.04344288126919859
0.04344288974389522
0.04344278841112921
0.04344258013969132
0.04344226773816377
0.04344185413219982
0.04344134257703375
0.04344073691474579
0.04344004188981002
0.0434392635398387
0.04343840968253303
0.04343749052569591
0.04343651943474307
0.04343551390231449
0.0434344967777222
0.04343349783156395
0.04343255575472375
0.04343172072025762
0.04343105767982796
0.04343065061893112
0.04343060806770906
0.04343107026545194
0.04343221852884348
0.04343428696059954
0.04343757782236871
0.04344248226868926
0.0434495104098829
0.0434593255190218
0.04347278301185063
0.04349098129181241
0.04351532575642094
0.04354758623573201
0.04358994861182798
0.04364501511826566
0.04371578483808573
0.04380540294724544
0.04391700879303109
0.0440534494748604
0.04531742229488714
0.04622377074078488
0.04343709615543763
0.04343859517765785
0.04343994394373702
0.04344115901396207
0.0434422363735591
0.04344318358005685
0.04344401053526085
0.04344472546693618
0.0434453355511933
0.04344584747418113
0.04344626755289785
0.0434466018475788
0.04344685633256443
0.04344703708190208
0.04344715046773217
0.04344720338823022
0.04344720353726689
0.0434471597271501
0.04344708227930346
0.04344698350140751
0.04344687827378885
0.04344678477385527
0.04344672537477959
0.04344672776499753
0.04344682634709883
0.0434470639921712
0.04344749424688444
0.04344818411504619
0.04344921757971389
0.04345070007039887
0.04345276415643999
0.0434555768099226
0.043459348476093
0.04346434419410671
0.043470900172448
0.04347944497021099
0.04349052103383451
0.04350481178275819
0.04352317662794134
0.04354669018677294
0.04357668285863407
0.04361477277713265
0.04366288283617113
0.04372321275299154
0.04379817992849536
0.0438902439479132
0.04400166211705394
0.04413448415142663
0.04535291135147248
0.04625996957850193
0.0434384506874126
0.04344009001767429
0.04344159074474555
0.04344297020796018
0.04344422615690012
0.04344536738970392
0.04344640510966087
0.04344734914435031
0.04344820853102543
0.04344899203415951
0.04344970827060834
0.04345036584497014
0.04345097354499327
0.04345154055827456
0.04345207670943403
0.04345259273237575
0.04345310059005175
0.04345361385410416
0.0434541481599702
0.04345472175685285
0.04345535617627749
0.04345607704902443
0.0434569151071834
0.04345790741881132
0.04345909891234458
0.04346054426727694
0.04346231026125032
0.04346447869158482
0.04346715003337146
0.04347044799255655
0.04347452521982974
0.04347957026381409
0.04348581604350923
0.04349355168755523
0.04350313798074292
0.04351502354587714
0.0435297621409258
0.04354803724702721
0.04357068882421463
0.04359873966084762
0.04363341914314708
0.04367617640221583
0.04372867561479502
0.04379275554157409
0.04387035436571544
0.04396338448767403
0.04407349247124566
0.04420213313933129
0.04537120727129856
0.04627863141672453
0.043439893535907
0.0434416660490538
0.04344331195695713
0.04344484926815555
0.04344627760322918
0.04344760701951205
0.04344884998485277
0.04345001786839738
0.04345112149043342
0.0434521716086374
0.04345317905016802
0.0434541548655346
0.04345511054603788
0.04345605826835579
0.04345701116589591
0.04345798364004377
0.04345899172352587
0.04346005350882635
0.04346118965760055
0.04346242401080725
0.04346378432338296
0.04346530315317552
0.04346701894009572
0.04346897732171454
0.04347123273805479
0.04347385040125128
0.04347690870273585
0.04348050219203952
0.04348474524339314
0.04348977647218173
0.04349576417500797
0.04350291287580661
0.04351147255181424
0.04352174993246555
0.0435341187986786
0.04354903373613662
0.0435670466078128
0.04358882536902215
0.0436151724470794
0.04364704135684568
0.04368554813871405
0.04373197155397777
0.04378773599531149
0.04385436747929115
0.04393341712901343
0.04402636606199347
0.04413442210913853
0.04425861668797733
0.0453749477919117
0.04628244674774994
0.04344141859332809
0.04344331673674824
0.04344510070971021
0.04344678906470908
0.04344838334192145
0.04344989484784566
0.04345133724893447
0.04345272336443833
0.0434540656916144
0.04345537686939523
0.04345666982079967
0.04345795792181976
0.04345925523619651
0.04346057678258648
0.04346193883375843
0.04346335925985231
0.04346485792751428
0.04346645716783766
0.04346818232898706
0.04347006243300689
0.04347213096023409
0.04347442678982655
0.04347699533182743
0.04347988989174641
0.04348317332030525
0.04348692001843325
0.04349121834652123
0.04349617362016212
0.04350191160082249
0.04350858255203885
0.04351636661932418
0.04352548077483882
0.04353618695374525
0.04354879998457016
0.0435636968303145
0.04358132937400461
0.04360223707252547
0.04362706017499359
0.04365655188645149
0.04369158737517421
0.04373316649905
0.04378240587586345
0.04384051566592834
0.04390875650463614
0.04398836913990139
0.04408049845414762
0.04418602812297755
0.04430569008287234
0.04536624354454479
0.04627356841543569
0.04344301929948326
0.04344503494511696
0.04344694919462248
0.04344878101570339
0.04345053386775152
0.04345222028174038
0.04345385506868713
0.04345545242318991
0.04345702642929734
0.04345859150476644
0.04346016255559104
0.04346175515849963
0.04346338580984668
0.04346507221127931
0.0434668335916456
0.04346869107610225
0.04347066811373498
0.04347279097613779
0.04347508934252201
0.0434775969898251
0.04348035261092571
0.04348340078544902
0.04348679314189027
0.0434905897352738
0.0434948607167929
0.04349968831973734
0.04350516920615442
0.04351141737441257
0.04351856721976929
0.04352677781300207
0.04353623863920394
0.04354717508710257
0.04355985415278533
0.04357459205674395
0.04359176301261129
0.04361180873864526
0.04363524781892125
0.04366268469550753
0.04369481681580228
0.04373243795031773
0.04377643513937265
0.04382777616184295
0.04388748413310541
0.04395659741735177
0.04403610807016329
0.04412690011777012
0.04422961457720187
0.04434476878124326
0.04534681539864888
0.04625375170662185
0.04344468887432684
0.04344681345289249
0.04344884972298216
0.04345081694888136
0.04345272048633472
0.04345457404621671
0.04345639351944038
0.04345819439128845
0.04345999223081796
0.04346180311844327
0.04346364381402114
0.04346553195250948
0.0434674863043497
0.04346952707552925
0.04347167624694984
0.04347395796306187
0.04347639898063459
0.04347902918912621
0.04348188221818435
0.04348499614792598
0.04348841434721115
0.04349218645358705
0.04349636955111567
0.04350102952428932
0.04350624274482479
0.0435120979399576
0.04351869841621353
0.04352616476901778
0.0435346381245852
0.04354428466739324
0.0435552994454288
0.04356791088255594
0.04358238660408737
0.043599040080939
0.04361823732937781
0.04364040398255294
0.04366603198966749
0.04369568518996631
0.04373000257829
0.04376969761329013
0.04381555157517295
0.04386839881123384
0.0439291014651173
0.04399851321929379
0.04407742662528851
0.0441665231909527
0.044266261560646
0.04437700297001341
0.04531808526495545
0.04622444697025457
0.04344642026911489
0.04344864478122218
0.04345079431963231
0.04345288833076413
0.04345493402309431
0.04345694622518018
0.04345894183591496
0.04346093754609202
0.04346295030961346
0.0434649977547196
0.04346709836535189
0.04346927168905331
0.04347153860649951
0.04347392164223402
0.04347644531663589
0.0434791365482451
0.04348202511669437
0.04348514419627904
0.04348853097661897
0.0434922273790983
0.04349628090542992
0.04350074560443777
0.043505683261312
0.04351116467784297
0.04351727135880388
0.04352409711209579
0.04353175034648492
0.04354035689134736
0.0435500631437695
0.04356103905817958
0.04357348152432545
0.04358761914126005
0.04360371697673539
0.04362208171395757
0.04364306686232597
0.04366707785668814
0.04369457644818693
0.04372608360803022
0.04376217994667293
0.04380350234135126
0.04385073526161642
0.04390459531152978
0.0439658073327278
0.04403507223511664
0.04411302232328676
0.04420018133723771
0.04429687069986168
0.04440333698831887
0.04528124367198337
0.04618686854542304
0.04344820623636116
0.04345052131603461
0.04345277495042874
0.04345498666050649
0.04345716545282081
0.04345932719962697
0.04346148972686987
0.04346367083962639
0.04346588877118269
0.043468162576955
0.04347051232822962
0.04347295933121288
0.04347552640366753
0.04347823819304168
0.04348112153651853
0.04348420587184398
0.0434875237073957
0.04349111116089672
0.04349500858587371
0.04349926127985311
0.04350392034190631
0.04350904359808205
0.0435146967883225
0.04352095470790029
0.04352790284634887
0.04353563903678508
0.04354427594822834
0.04355394308284218
0.04356478930790257
0.0435769857505512
0.04359072922392326
0.0436062459689236
0.04362379548714528
0.04364367456289517
0.04366622115581601
0.04369181784515485
0.04372089434219848
0.04375392837658753
0.04379144411697711
0.043834007118099
0.04388221467805955
0.04393668060384457
0.04399801327248921
0.04406678747665833
0.04414350666519926
0.04422857121539494
0.04432219920401231
0.04442455258369039
0.0452372980468783
0.04614204400781587
0.04345003935156439
0.04345243530903726
0.04345478348289554
0.04345710336607474
0.0434594056986919
0.04346170731377435
0.043464026876151
0.0434663832095413
0.04346879571869952
0.04347128476383076
0.04347387186495694
0.0434765799305242
0.0434794335389482
0.04348245926104324
0.04348568602380694
0.04348914552542064
0.04349287270483732
0.04349690628016962
0.04350128937701223
0.04350607021261127
0.04351130295774541
0.04351704857759211
0.04352337595934528
0.04353036306412396
0.04353809863275786
0.04354668382395953
0.04355623383828086
0.04356687982919788
0.04357877151815637
0.04359207970612039
0.04360699909569914
0.04362375130708711
0.04364258795518201
0.04366379367559038
0.043687688856266
0.04371463174154959
0.04374501947818497
0.04377928752250187
0.04381790672329496
0.04386137731337832
0.04391021899984267
0.04396495648836398
0.04402609971057855
0.04409411941997131
0.04416941533808853
0.0442522911004299
0.0443428868932366
0.04444130211166573
0.04518710900699988
0.04609085118713988
0.0434519120540436
0.04345437892691382
0.04345681175281478
0.04345922989952636
0.04346164576914377
0.04346407706688334
0.04346654320276211
0.04346906391894929
0.04347165968039312
0.04347435202697499
0.04347716378633162
0.04348011931013656
0.04348324475809031
0.04348656842171855
0.04349012108820113
0.04349393645724817
0.04349805160223742
0.04350250750583295
0.04350734967999206
0.04351262879967412
0.04351840153060665
0.04352473135886484
0.04353168976508911
0.04353935747305523
0.04354782550581481
0.04355719676894173
0.04356758765947417
0.04357912997426613
0.04359197297175185
0.04360628554780624
0.04362225857478399
0.04364010731334751
0.04366007378044167
0.04368242892156787
0.04370747436993095
0.04373554348469391
0.0437670012883335
0.04380224282881372
0.04384168942169595
0.0438857821948388
0.0439349723571141
0.04398970776541496
0.04405041532177546
0.04411747995936553
0.04419121780690138
0.04427185648396522
0.0443594774849988
0.0444541339868864
0.04513141803951093
0.04603404640030115
0.04345381667999922
0.04345634428115958
0.04345885158830091
0.04346135775220152
0.04346387675946906
0.04346642709527929
0.04346902881755596
0.04347170248349985
0.04347446950470412
0.04347735247407907
0.04348037538469769
0.04348356387174556
0.04348694549641495
0.04349055006908677
0.04349441001090234
0.04349856076947915
0.04350304125963685
0.04350789438407018
0.04351316762405705
0.04351891366881922
0.04352519126469528
0.04353206610248397
0.04353961162742187
0.04354791020460735
0.04355705417949712
0.04356714741643826
0.04357830665950262
0.04359066319609919
0.04360436459610714
0.0436195765508982
0.04363648476671721
0.04365529683736422
0.04367624398703801
0.04369958252638187
0.04372559481953996
0.04375458949319384
0.04378690056146476
0.04382288508343528
0.04386291892872728
0.04390739022214703
0.04395669006132399
0.04401120025112898
0.04407127776641448
0.04413723673719738
0.04420932585747584
0.04428771294726883
0.04437243535816297
0.04446351221526816
0.04507086879613208
0.04597228617205472
0.04345574549814299
0.0434583234645412
0.04346089484854234
0.04346347849762357
0.04346608990088296
0.04346874822924479
0.0434714740892264
0.04347428874741713
0.04347721444682651
0.0434802747059456
0.04348349454151095
0.04348690071428464
0.04349052201013009
0.04349438955919131
0.043498537188866
0.04350300182613218
0.04350782392387759
0.04351304798511844
0.04351872316402622
0.04352490390458152
0.04353165055929343
0.04353903025631581
0.04354711771204779
0.04355599632723012
0.04356575916321369
0.0435765102289366
0.04358836573000554
0.04360145547676112
0.04361592434967437
0.04363193380494872
0.04364966336712039
0.04366931203208833
0.04369109947419326
0.04371526691061982
0.04374207743896327
0.04377181561731321
0.04380478601412705
0.04384131042130093
0.04388172340450559
0.04392636587712716
0.04397557641951187
0.04402968020671969
0.04408897537875574
0.04415371764165106
0.04422410124963749
0.04430024696296612
0.04438215906788309
0.04446983174412981
0.04456278067622617
0.04590614431464492
0.04345769074318434
0.04346030858332831
0.043462933454637
0.04346558382104933
0.04346827658866916
0.04347103151937254
0.04347386966859502
0.04347681290618471
0.04347988419136566
0.04348310784137908
0.04348650975502405
0.04349011765861421
0.04349396138203838
0.0434980731710389
0.04350248803705718
0.04350724415985218
0.04351238332351635
0.04351795137940202
0.04352399875568175
0.04353058111303872
0.04353775994457234
0.04354560338193245
0.04355418694406477
0.04356359448038005
0.04357391910453003
0.04358526427172121
0.04359774489153818
0.04361148850668868
0.04362663650200797
0.04364334530569735
0.04366178752731249
0.04368215295632645
0.04370464932006105
0.04372950266841785
0.0437569572222305
0.04378727448995783
0.04382073142891767
0.04385761740859075
0.04389822972909711
0.04394286747009512
0.04399182348597074
0.04404537449327556
0.04410376916694635
0.0441672150009785
0.04423586228719267
0.0443097947719291
0.04438899214645667
0.04447343049489438
0.0445626446274638
0.04583612540870045
0.0434596446517174
0.04346229179391403
0.04346495942735013
0.0434676655587364
0.04347042842318517
0.04347326827900313
0.04347620653118747
0.04347926554621965
0.04348246888314759
0.04348584152977374
0.04348941012640362
0.04349320321385979
0.04349725150824908
0.04350158820354159
0.04350624930645795
0.04351127399829887
0.04351670506924269
0.04352258937371532
0.04352897831220257
0.04353592843039344
0.04354350199110316
0.04355176768422794
0.04356080134077441
0.04357068674476612
0.04358151648499921
0.04359339287000216
0.04360642888377818
0.0436207491628561
0.04363649097023308
0.04365380512466705
0.04367285682972476
0.04369382632938692
0.04371690929633918
0.04374231683529072
0.04377027495997953
0.04380102338050232
0.04383481341983851
0.04387190487022082
0.04391256160503413
0.0439570457893857
0.04400561057408871
0.04405849127490705
0.04411589500807128
0.0441779894892754
0.0442448895181402
0.04431664977736335
0.04439323186476508
0.0444745989449688
0.04456030566200401
0.04576267561081328
0.04346159948941274
0.04346426532546072
0.04346696490601884
0.04346971571489133
0.04347253722647392
0.04347545010265032
0.04347847600126514
0.04348163768230564
0.04348495919426223
0.04348846607685999
0.04349218558000004
0.0434961469045767
0.04350038147330706
0.04350492322587943
0.04350980894425587
0.04351507859729729
0.04352077574965867
0.04352694798946461
0.04353364738953644
0.04354093104460059
0.04354886162008852
0.04355750797470304
0.04356694581782689
0.04357725841712485
0.04358853734781881
0.04360088327172829
0.0436144067373964
0.04362922897532535
0.04364548266113963
0.04366331260606035
0.04368287632096871
0.04370434438561462
0.04372790053786436
0.04375374137998941
0.04378207558160176
0.04381312244417408
0.04384710968228208
0.04388427027567712
0.04392483825701397
0.0439690433296918
0.04401710425032167
0.04406922101402271
0.04412556584819986
0.04418627366579151
0.04425143064108528
0.04432106870793931
0.04439513637888934
0.04447358782686858
0.04455599767137996
0.04568619141015456
0.043463547609899
0.04346622155234363
0.04346894224201159
0.04347172657534892
0.04347459517384643
0.04347756901099061
0.0434806699016133
0.04348392089540317
0.04348734641657332
0.04349097243139975
0.04349482666358336
0.0434989388310941
0.04350334090742971
0.04350806740396703
0.04351315568145133
0.04351864628325462
0.04352458331299358
0.04353101483779039
0.04353799332271161
0.04354557611305214
0.04355382594523985
0.043562811499127
0.04357260798609329
0.04358329776661836
0.04359497099505502
0.04360772627610876
0.04362167132083731
0.04363692357793015
0.04365361081082392
0.04367187158152962
0.04369185559072427
0.04371372381146722
0.04373764834078
0.04376381188003613
0.04379240674291387
0.04382363328052277
0.04385769760917589
0.04389480853003115
0.04393517354371692
0.04397899389272752
0.04402645860145672
0.0440777375744079
0.04413297377895823
0.04419227510510618
0.04425570468498059
0.04432327673747214
0.044394930560316
0.04447061432545815
0.0445499224163986
0.04560702674402767
0.04346548143357375
0.043468152940947
0.04347088390148708
0.04347369056332837
0.04347659460073647
0.04347961720910561
0.04348278026805896
0.04348610701756289
0.04348962214960096
0.04349335193895629
0.04349732445344819
0.04350156978642675
0.04350612030697318
0.04351101093015769
0.04351627941267168
0.0435219666713656
0.0435281171325607
0.04353477910813593
0.04354200519896594
0.04354985273053055
0.04355838421715963
0.04356766785296798
0.04357777802884863
0.04358879586691139
0.04360080976662981
0.04361391594872721
0.04362821898112828
0.04364383226411039
0.04366087844521262
0.04367948972667895
0.04369980801894635
0.04372198488383541
0.04374618120096295
0.04377256648127367
0.0438013177434556
0.04383261786400992
0.04386665331151602
0.04390361118240248
0.04394367547088057
0.04398702253405106
0.04403381574663437
0.04408419941822259
0.04413829201063072
0.04419617919024842
0.04425790560083694
0.04432347177441977
0.04439281079563481
0.04446586711992781
0.04454225447673337
0.04552549889785601
0.04346739348478169
0.04347005209951066
0.04347278253350004
0.04347560033173997
0.04347852812619992
0.0434815872472488
0.04348479955042703
0.04348818836949675
0.04349177855916056
0.04349559658840909
0.04349967074465474
0.04350403136088251
0.04350871105461537
0.0435137449853927
0.04351917113411085
0.04352503060375966
0.04353136794339558
0.04353823149547584
0.04354567376612582
0.04355375181844682
0.04356252768819918
0.0435720688174933
0.0435824485038221
0.04359374635664487
0.0436060487529021
0.04361944927826641
0.04363404913717172
0.04364995750951449
0.04366729182582807
0.04368617792613329
0.0437067500602379
0.04372915067947996
0.04375352996229806
0.04378004500925873
0.04380885863816172
0.04384013770787643
0.04387405090196663
0.04391076591164186
0.04395044597323938
0.04399324574170465
0.0440393065110456
0.04408875086014909
0.0441416767662987
0.04419815166686513
0.04425820544348837
0.04432182817674178
0.04438894907372865
0.04445951062196511
0.0445331453705532
0.04544189342869378
0.04346927642946132
0.04347191181832711
0.04347463101032609
0.04347744879902268
0.04348038867945982
0.04348347203386021
0.0434867206091618
0.04349015774050446
0.04349380834416183
0.04349769897305784
0.04350185801446573
0.04350631591130028
0.0435111053900233
0.04351626170474007
0.04352182290014147
0.0435278300929067
0.04353432777150695
0.04354136411474454
0.04354899132840826
0.0435572659985671
0.04356624946008556
0.04357600817603985
0.04358661412337719
0.04359814517727137
0.04361068548432048
0.04362432581149174
0.04363916385384772
0.04365530447976906
0.04367285988723015
0.04369194963914625
0.04371270053989975
0.0437352463091624
0.04375972700359787
0.04378628813251168
0.04381507941086828
0.04384625309325229
0.04387996183645743
0.04391635604766807
0.04395558069041497
0.04399777154429228
0.04404305094003313
0.04409152304916302
0.04414326877113187
0.04419834064822548
0.0442567568600377
0.0443184996451647
0.04438349615755411
0.04445168825805026
0.04452272674844724
0.04535646819002691
0.04347112310145194
0.0434737250946088
0.04347642245190538
0.04347922917422754
0.04348216952647284
0.04348526486415643
0.0434885367459002
0.04349200842010504
0.04349570476751549
0.04349965231893423
0.04350387944681036
0.04350841658076766
0.04351329642464527
0.04351855418695143
0.04352422782738478
0.04353035831845965