/*--------------------------------*- C++ -*----------------------------------*\
| =========                 |                                                 |
| \\      /  F ield         | OpenFOAM: The Open Source CFD Toolbox           |
|  \\    /   O peration     | Version:  v1912                                 |
|   \\  /    A nd           | Website:  www.openfoam.com                      |
|    \\/     M anipulation  |                                                 |
\*---------------------------------------------------------------------------*/
FoamFile
{
    version     2.0;
    format      ascii;
    class       volScalarField;
    location    "1000";
    object      rho;
}
// * * * * * * * * * * * * * * * * * * * * * * * * * * * * * * * * * * * * * //

dimensions      [1 -3 0 0 0 0 0];


internalField   nonuniform List<scalar> 
7500
(
0.9799556331717065
0.9799673954946414
0.979991940621425
0.9800289508099832
0.9800790016763526
0.9801423687489453
0.9802194965178187
0.9803109970871025
0.9804175988790177
0.9805401403942724
0.9806795906905078
0.9808370615863699
0.9810138174954128
0.9812112899896135
0.9814310933086335
0.981675042402952
0.9819451740996512
0.982243771531399
0.9825733924404865
0.9829369020795794
0.9833375115328856
0.9837788224949728
0.9842648798001581
0.9848002333132817
0.9853900112082289
0.9860400072031724
0.9867567850352638
0.9875478044070705
0.9884215739136842
0.9893878381947366
0.9904578089430953
0.9916444527269311
0.9929628532788622
0.9944306727082642
0.9960687457956985
0.9979018589806952
0.9999597829678232
1.002278697398771
1.004903096423294
1.007888532971998
1.011305536159689
1.015246176240054
1.019834203312544
1.025236166609528
1.03168558718358
1.039543405171247
1.049274734198955
1.061735996383704
1.077341625655963
1.073501122639988
0.9799477256347136
0.9799600571771615
0.9799838344789299
0.9800203762028075
0.9800700434877984
0.9801329510626557
0.9802095717023978
0.9803005578272006
0.9804065735172682
0.9805284284562013
0.9806670900357702
0.980823661228685
0.9809993954069455
0.9811957117518468
0.9814142100017171
0.9816566881835509
0.9819251633839037
0.9822218956553718
0.9825494156832357
0.9829105568965939
0.9833084928060483
0.9837467805508334
0.9842294118748756
0.9847608730443149
0.9853462155995966
0.9859911403286115
0.9867020974911207
0.9874864071733792
0.9883524047812915
0.9893096181983518
0.9903689851946668
0.9915431224969503
0.9928466618287758
0.9942966735841027
0.9959132062569591
0.9977199793477464
0.9997452855025698
1.002023237550427
1.004595332058707
1.007512649760319
1.01083880318106
1.014654539391812
1.019064579228228
1.024202439066386
1.030234111458205
1.037355465169607
1.04561286145116
1.05455654074613
1.064655817849541
1.060923421711822
0.979933786755403
0.9799472283810918
0.9799707031222792
0.9800069564497415
0.9800563042372293
0.9801186833080466
0.9801946033669908
0.9802847036428468
0.9803896912448676
0.9805103862622394
0.9806477359960546
0.9808028255705318
0.9809768900235099
0.9811713274638646
0.981387713479038
0.9816278183072359
0.9818936268461665
0.9821873616819218
0.9825115096988652
0.9828688528914693
0.9832625040921538
0.9836959485061958
0.9841730921512148
0.9846983185505159
0.9852765553515604
0.9859133529509159
0.9866149777310016
0.9873885231877062
0.988242043097893
0.9891847120024772
0.9902270197399216
0.9913810086484972
0.992660564471742
0.9940817749240315
0.9956633724466846
0.9974272824471189
0.9993993235561133
1.001610120583487
1.004096067015068
1.00690059961286
1.010075578608496
1.013683210090009
1.017798463735481
1.022507436467984
1.027885282692371
1.033967410994216
1.040627941507199
1.04696425709911
1.053902824315538
1.052073796326477
0.9799126303698211
0.9799263897217315
0.9799490974058018
0.9799844679935625
0.9800331028334763
0.9800946748250595
0.9801696011512484
0.9802585107364491
0.9803620764458815
0.9804810949486668
0.9806165006126156
0.9807693608295327
0.9809408862396582
0.9811324452556995
0.9813455782935824
0.9815820141048917
0.9818436888274514
0.9821327678060023
0.9824516706581439
0.9828031001520957
0.983190075515077
0.9836159709298342
0.9840845601403616
0.9846000682794361
0.9851672322694054
0.9857913714430293
0.9864784703950745
0.9872352765243948
0.9880694152795744
0.9889895268025284
0.9900054284970733
0.9911283090818492
0.9923709608979198
0.9937480591355936
0.9952764957606787
0.9969757733494267
0.9988684528220902
1.00098037478902
1.003341449198219
1.005985750449399
1.008951546611114
1.01228011017494
1.016012920670245
1.020178903516336
1.024765344888864
1.029676784401091
1.034691178116136
1.038747323298137
1.04262359678221
1.040124523430707
0.9798850745881595
0.9798994099455894
0.9799219723160364
0.9799566302019711
0.9800043647967891
0.9800648140476433
0.9801383366524963
0.9802255740212842
0.9803271955743124
0.9804439774556359
0.9805768270408113
0.9807267807932709
0.9808950146119022
0.9810828570493062
0.9812918023484206
0.981523525656425
0.9817799007654664
0.9820630203323378
0.9823752189839418
0.9827190997840383
0.9830975645567332
0.9835138486626349
0.9839715609362589
0.9844747296134535
0.9850278552164838
0.9856359715185088
0.9863047158698574
0.9870404103202463
0.9878501550813313
0.988741935884453
0.9897247465803913
0.9908087277452085
0.9920053206835838
0.9933274343309904
0.9947896213268307
0.9964082494190091
0.9982016461137785
1.000190175641951
1.002395920950829
1.004842302517566
1.007553335549398
1.01055005976323
1.013838595008405
1.01740225301267
1.021171133258675
1.024975371443827
1.028578315111826
1.031074992032355
1.032768190325073
1.030163625394486
0.9798507608067669
0.9798650640009477
0.9798870973856623
0.9799206799071255
0.9799671257790762
0.9800261342204574
0.9800979525049863
0.9801831716379229
0.9802824284096795
0.9803964625845716
0.9805261482421816
0.9806724864567544
0.9808366114029183
0.9810198027691215
0.9812234979584614
0.981449305875583
0.981699023007243
0.9819746516971715
0.9822784208695133
0.9826128095611235
0.9829805736184594
0.9833847759675033
0.9838288209233179
0.9843164930530423
0.9848520011461694
0.9854400278684715
0.986085785660713
0.9867950793583949
0.9875743757983046
0.988430880245313
0.9893726186124933
0.9904085228689502
0.9915485138280458
0.9928035699917456
0.9941857625078349
0.9957082206259465
0.9973849411562198
0.9992304639091815
1.001259082648737
1.003484272247011
1.005915015446537
1.008549421262129
1.011369123970391
1.014323787760456
1.017310012320265
1.020126466856608
1.022538247371961
1.023866608097576
1.024044256786048
1.02120617632979
0.9798101485352477
0.9798244421099154
0.9798461456437165
0.9798788452005411
0.9799239672080475
0.9799813226765393
0.9800511162050766
0.9801339113808503
0.9802303332550188
0.9803410935279723
0.9804670287365584
0.9806090973859153
0.9807683844915476
0.9809461126766046
0.9811436532106877
0.9813625382769113
0.9816044752409715
0.9818713627549851
0.9821653088237486
0.9824886510778194
0.9828439794584635
0.9832341615190324
0.9836623705431815
0.9841321166427497
0.9846472809204552
0.985212152644111
0.9858314691413889
0.9865104577351889
0.9872548784203229
0.9880710650123382
0.9889659609705999
0.9899471438729633
0.9910228287883324
0.992201835598857
0.9934934921601443
0.9949074295723412
0.996453174900725
0.9981395935239916
0.9999740657240382
1.001960355004585
1.004093010965013
1.006354542463614
1.008707247151694
1.011079671784935
1.013353300969986
1.015326857309876
1.016774896735035
1.017217583925499
1.0164211734093
1.013292505781175
0.9797632409265151
0.9797772153651574
0.9797983013013321
0.9798298615150997
0.9798733487515214
0.9799287031987992
0.9799961144744952
0.9800760958807317
0.9801692383066838
0.9802762138878953
0.9803978129041044
0.9805349433542115
0.9806886329520283
0.9808600382917134
0.9810504545824477
0.981261326160605
0.9814942586291352
0.9817510324971882
0.9820336182999891
0.9823441933000048
0.9826851598213856
0.9830591652247459
0.9834691234727896
0.9839182381333729
0.9844100264997472
0.9849483442519558
0.9855374096824615
0.9861818258986506
0.9868865984666247
0.9876571444919569
0.9884992869126996
0.9894192246271525
0.9904234634875638
0.9915186862568797
0.9927115181956309
0.9940081632308801
0.995413865798208
0.9969323213768644
0.9985641184010868
1.000302736452915
1.002133364238055
1.004026661478195
1.005932150694897
1.007767838022039
1.009412439029288
1.01068077961498
1.011362820669111
1.011119577055907
1.009687096516445
1.006321477368713
0.9797103288391393
0.9797239341180997
0.979744379155649
0.9797748157563061
0.9798166309251576
0.9798698399352666
0.9799346355563218
0.9800114934749855
0.9801009754861476
0.9802037189516009
0.9803204683133641
0.9804520781893706
0.9805995147743928
0.9807638632213418
0.9809463359932319
0.9811482816878125
0.9813711950483422
0.9816167280589679
0.9818867019895613
0.9821831203528643
0.9825081826709563
0.9828642988545424
0.9832541038843291
0.9836804723083583
0.9841465318126629
0.9846556747555745
0.9852115660140124
0.9858181447395088
0.9864796164760816
0.9872004304980513
0.9879852350724093
0.9888387998067495
0.9897658868003766
0.9907710448702348
0.9918582981847728
0.9930307169438524
0.9942899121843659
0.9956347384678861
0.9970586687017052
0.9985488648373027
1.000082711087554
1.00162284151952
1.003111777886931
1.004464417974454
1.00556381783323
1.006247095141975
1.006325677623986
1.005549616258944
1.003685465530504
1.000159627291836
0.9796515866861593
0.979664679607601
0.9796843033872955
0.9797134223996213
0.9797533383710517
0.9798041158446195
0.9798659615817408
0.9799393191262711
0.9800247143347285
0.9801227436373712
0.9802341002265217
0.9803595790441709
0.980500077961822
0.9806566034468481
0.9808302773862997
0.9810223441314214
0.9812341782669299
0.9814672930480821
0.9817233492886547
0.9820041645295994
0.9823117222436689
0.9826481807028339
0.9830158809762244
0.9834173532909828
0.9838553206647537
0.9843326982448812
0.9848525861186087
0.9854182524743319
0.9860331025540926
0.9867006272392161
0.98742432250141
0.9882075658109276
0.9890534283936586
0.9899644167712193
0.9909421335495243
0.9919868731569484
0.9930966928589615
0.9942654683584584
0.9954823775421032
0.9967293720733367
0.9979783357132829
0.9991872158717171
1.000295864255596
1.001220931696107
1.001853606102439
1.002053148810598
1.001655601673154
1.00046716025082
0.9982995244257027
0.9946802868055233
0.9795872896159205
0.9795998078334972
0.9796185303910701
0.9796462469114732
0.9796841639724683
0.9797323611163432
0.9797910489835735
0.9798606411976823
0.9799416264736139
0.9800345590037165
0.9801400796659203
0.980258921465727
0.9803919107208844
0.9805399712223951
0.9807041294463359
0.9808855198109162
0.9810853902275938
0.9813051078723143
0.9815461648950308
0.9818101837763635
0.9820989219525946
0.9824142751729426
0.9827582788614642
0.9831331064704386
0.9835410634661641
0.983984575023902
0.9844661648618961
0.9849884217182628
0.9855539483746211
0.9861652868163733
0.9868248087817801
0.9875345562653719
0.9882960320956098
0.9891099193634324
0.9899757912135523
0.9908912089787367
0.9918506069357667
0.9928448437395335
0.9938594490774343
0.9948726251275787
0.9958528772876792
0.9967560478799588
0.9975222875562469
0.9980728061153303
0.9983086502962226
0.998108765229888
0.9973335029270346
0.9958270232262902
0.9934418259352586
0.9897781035576233
0.9795177016203507
0.9795295615451975
0.979547267587849
0.9795734351170815
0.9796091776039296
0.9796545754598031
0.9797098369962348
0.9797753482043546
0.9798515601331494
0.9799389823546318
0.9800382009635601
0.9801498838160788
0.9802747817080438
0.980413731331922
0.9805676589497204
0.980737583897575
0.9809246219779746
0.9811299886316245
0.9813550015648326
0.9816010824433168
0.9818697571589052
0.982162653994102
0.9824814987935143
0.9828281059136492
0.9832043633832853
0.9836122100025264
0.9840536016858511
0.9845304630072504
0.9850446183698771
0.985597696150523
0.9861909923565748
0.9868252985521064
0.9875006878423441
0.9882162857345475
0.9889695242968503
0.9897554493484211
0.990566265644491
0.9913902008912764
0.9922101019602898
0.9930017685501679
0.9937320136381426
0.9943564632542534
0.9948174575724936
0.9950421321733632
0.9949418268684486
0.9944123578938858
0.9933358620601223
0.9915845116225646
0.9890428171275601
0.9853677991768365
0.9794431255749433
0.9794542684211968
0.9794708769581032
0.9794953902269095
0.9795288317389284
0.9795712734941766
0.9796229119259316
0.9796841024599671
0.9797552564489895
0.9798368363952827
0.9799293715427616
0.9800334624310527
0.9801497817649363
0.980279076237157
0.9804221686712682
0.9805799597743122
0.980753429422804
0.9809436373142295
0.9811517226198109
0.9813789021713187
0.9816264665956989
0.9818957736151942
0.9821882374986041
0.9825053133053382
0.9828484742400824
0.9832191796203743
0.9836188309231213
0.9840487106268793
0.9845098994951107
0.9850031656899575
0.9855288217717461
0.9860865446346854
0.9866752331381931
0.9872922696506125
0.9879332555404428
0.988591577396888
0.9892575209611212
0.9899173474075063
0.990552121404852
0.9911363305050125
0.9916363635075629
0.9920089255732715
0.9921996443122825
0.9921420460476724
0.9917574128017345
0.9909559376494038
0.9896382696060753
0.9876985070927798
0.9850454453187371
0.9813816481240131
0.9793638770936631
0.979374244385709
0.9793896727635373
0.9794124189592269
0.9794434184742898
0.9794827315412665
0.9795305371767776
0.9795871580754009
0.9796529648614882
0.9797283716087768
0.9798138493441338
0.9799099297834887
0.9800172057128325
0.9801363317766709
0.980268025205243
0.9804130659053806
0.9805722957608732
0.9807466169188095
0.9809369886611536
0.981144422336943
0.9813699736918068
0.9816147317420404
0.9818798030551975
0.9821662900998567
0.9824752617203609
0.982807713241255
0.9831645135567463
0.9835463323923561
0.983953550765676
0.9843861493608242
0.9848435466714133
0.9853245130943965
0.9858265056491803
0.9863456462589769
0.9868762419169038
0.98741022089622
0.9879364162305558
0.9884397465146098
0.9889002367162749
0.9892919133764371
0.9895816487041701
0.9897280510184034
0.9896805846339817
0.989379118936603
0.9887541116764202
0.9877280285954086
0.9862168894554248
0.9841323877425482
0.9814018989555192
0.977764770630759
0.9792802935106794
0.9792898370424452
0.9793040168824622
0.97932490177742
0.9793533407176197
0.9793893810390754
0.9794331803519568
0.9794850256867568
0.9795452449684007
0.9796142020792334
0.9796923083021138
0.9797800251576548
0.9798778641373529
0.9799863864628566
0.9801062024633822
0.9802379700802365
0.9803823922961303
0.9805402132232208
0.980712212409419
0.9808991968113746
0.981101989695028
0.9813214156364881
0.9815582802706241
0.9818133438171642
0.9820872853977246
0.9823806570807785
0.9826938235870664
0.9830268842975417
0.9833795911132641
0.9837512123889739
0.9841404302654566
0.9845448403925897
0.9849610000723344
0.9853840083705311
0.9858070653959012
0.9862209855778367
0.9866135795828829
0.9869689429776448
0.9872666557640885
0.9874809203043872
0.9875797067663465
0.9875240017987502
0.9872672945972358
0.9867554812827817
0.9859272663367658
0.9847156025196587
0.9830491992414159
0.98085396971008
0.978071764641117
0.97447199526265
0.979192727376572
0.9792014039355085
0.9792142731888158
0.9792332097912017
0.9792589766866295
0.9792916082397077
0.979331238551005
0.9793781170405514
0.9794325275576986
0.9794947827483431
0.979565233372342
0.9796442701675274
0.9797323228469248
0.9798298588469186
0.9799373814421056
0.9800554267758358
0.9801845595654712
0.9803253671929028
0.9804784516862236
0.9806444190786217
0.9808238652614114
0.9810173577456901
0.9812254113372521
0.9814484578947879
0.9816868046200512
0.9819405858774467
0.9822096993817904
0.9824937286365406
0.9827918657899136
0.9831027184200521
0.9834240845428647
0.983752888120218
0.9840848645727097
0.9844142470919378
0.9847333833575156
0.9850322884476157
0.9852981158863356
0.9855145611149
0.9856612179935484
0.9857129196964876
0.9856391239494385
0.9854034266328286
0.9849633043927382
0.9842702353152697
0.9832702261110811
0.9819051850135746
0.9801143199072441
0.9778350672602985
0.9750207130895117
0.9714656586352129
0.9791015465782166
0.9791093195953695
0.9791208255357796
0.9791377395015646
0.9791607386542531
0.979189844846127
0.9792251676204616
0.9792669174295893
0.9793153328309498
0.9793706742993114
0.9794332314605482
0.9795033239488296
0.9795812996339217
0.9796675323860575
0.9797624190126643
0.9798663749307597
0.979979828307858
0.9801032123749011
0.980236955339614
0.9803814675551435
0.9805371246394953
0.9807042466979478
0.9808830700975623
0.9810737150137547
0.9812761392378391
0.9814900958093102
0.9817150540770917
0.9819501570156531
0.9821939861042118
0.9824445333961762
0.9826990324929833
0.9829537544305643
0.9832037567775697
0.9834426005155252
0.9836620060682751
0.983851457996583
0.9839977580133825
0.9840845352330374
0.9840917376880384
0.9839951383405887
0.9837659064673542
0.983370314422562
0.9827696567019062
0.9819204991363493
0.9807752623595533
0.9792834948818464
0.9773931279395135
0.9750509724076948
0.9722194214333785
0.9687140303527214
0.9790071316676853
0.9790139700934063
0.9790240677272731
0.9790388951777337
0.9790590438395469
0.9790845236706714
0.9791154193096642
0.9791519016021362
0.9791941631623778
0.9792424118725611
0.9792968761497638
0.9793578047923707
0.9794254644354924
0.9795001363764281
0.9795821124261265
0.9796716893436455
0.9797691616059275
0.9798748121720132
0.9799889005729938
0.9801116483318176
0.9802432194083419
0.9803836978397786
0.9805330564094179
0.9806911251698844
0.9808575427265545
0.9810317149459776
0.9812127223890263
0.9813991931514652
0.9815892777473291
0.98178048302571
0.9819695193618329
0.9821521176743457
0.9823228026682946
0.9824746325700225
0.9825988972002705
0.982684776809659
0.9827189683519161
0.9826852899950425
0.9825642864358454
0.9823328667428041
0.9819640177559745
0.9814266499947557
0.9806856352254161
0.9797021277443919
0.9784341576300253
0.976837789844392
0.9748682352848699
0.9724799749520391
0.9696426889124194
0.9661901449780378
0.9789098743046557
0.9789157527135031
0.9789244051273573
0.9789370935020767
0.9789543234981372
0.9789760939062272
0.9790024645477553
0.9790335665326712
0.9790695463250726
0.9791105591684915
0.9791567725607238
0.9792083651340644
0.9792655233740721
0.9793284375713993
0.9793972966976744
0.9794722817241903
0.9795535572605748
0.9796412609025286
0.9797354896810784
0.9798362841983241
0.9799436067683285
0.9800573193508295
0.9801771520143975
0.9803026651137745
0.9804332174232055
0.9805678441423933
0.9807052519478086
0.9808437183697111
0.9809809875554081
0.9811141421135492
0.9812394600069562
0.9813522417288197
0.9814466062473735
0.9815152582239007
0.981549225485947
0.9815375692969951
0.9814670759201201
0.9813219418441632
0.9810834730630944
0.9807298268127158
0.9802358319013323
0.9795729334951201
0.9787093076139579
0.977610217378866
0.9762385876877618
0.9745560452664248
0.972523899785857
0.9701029503998667
0.9672687262359712
0.9638709076976686
0.9788101752479268
0.9788150735214693
0.9788222514846634
0.9788327590902888
0.9788470163573417
0.9788650116686675
0.9788867803993914
0.9789124142077066
0.9789420136542057
0.9789756817385237
0.979013525763908
0.9790556553284434
0.9791021783759097
0.9791531963526601
0.979208798213028
0.9792690527078979
0.9793339991501663
0.979403635348177
0.9794779030218232
0.9795566716200647
0.9796397160258438
0.9797266915293231
0.9798171072924773
0.979910259575725
0.980005202544124
0.9801007040074365
0.9801951573437154
0.9802865071514988
0.9803721500727204
0.9804488166687755
0.9805124355175631
0.9805579751343479
0.9805792619999505
0.9805687755482182
0.9805174222952162
0.9804142930040949
0.9802464114646163
0.9799984875539594
0.9796526928587221
0.9791884834115437
0.9785824995668172
0.9778085797582303
0.9768379223548543
0.9756394522714712
0.9741803612092816
0.972427030005973
0.9703458971118085
0.9679030028287904
0.9650785824341378
0.961736395024804
0.9787084425274224
0.9787123457357786
0.9787180275930074
0.9787263235709655
0.9787375682791019
0.978751740470276
0.978768851639586
0.9787889545818417
0.9788121045708781
0.9788383531431677
0.9788677485202431
0.9789003328076262
0.9789361374631033
0.9789751777070256
0.9790174457285726
0.9790629021219718
0.9791114662263357
0.9791630030068085
0.9792173087431527
0.97927409211502
0.9793329556547664
0.9793933512893146
0.97945456055355
0.9795156613409937
0.9795754671288407
0.9796324820724174
0.9796848252910945
0.979730156124658
0.9797655803722958
0.9797875411394478
0.9797916936292265
0.9797727622392621
0.9797243794561457
0.9796389076392118
0.9795072468450087
0.9793186336030819
0.9790604389675232
0.9787179778769924
0.9782743460251729
0.9777103050888822
0.9770042409819462
0.9761322244413272
0.9750681994252519
0.9737843440551308
0.9722515685947332
0.9704403260819955
0.9683213845714295
0.9658651624916788
0.9630556877065148
0.9597693077167351
0.9786050895576421
0.9786079877880142
0.9786121592459717
0.9786182233261795
0.9786264296320184
0.9786367480677228
0.9786491669596554
0.9786637010697223
0.9786803613183593
0.9786991489039394
0.9787200544128456
0.9787430543255131
0.9787681060050486
0.9787951414730145
0.978824060076968
0.9788547196204002
0.9788869261203653
0.9789204193111083
0.9789548582722555
0.9789897943478247
0.9790246562780546
0.979058724148319
0.9790910890197803
0.9791206205908279
0.9791459151217667
0.9791652457809948
0.9791764952191337
0.9791770815281226
0.9791638714966796
0.9791330804514033
0.9790801584098823
0.9789996623096122
0.9788851146803403
0.9787288503557059
0.9785218547078685
0.978253598738839
0.9779118789466038
0.977482672930771
0.976950024890055
0.9762959785248866
0.9755005774120999
0.9745419561076771
0.9733965406243597
0.9720393936939242
0.970444667667489
0.9685863122444934
0.9664387648171759
0.9639761260919554
0.9611854820995973
0.9579545354713135
0.9785005333082506
0.978502421543636
0.9785050755010209
0.97850889777912
0.9785140535768462
0.9785205047250578
0.9785282171930045
0.9785371687114889
0.9785473270136557
0.9785586443621674
0.97857105549447
0.9785844736008859
0.9785987849417094
0.9786138421175915
0.9786294560711909
0.9786453874280638
0.978661331049904
0.9786769064344087
0.9786916400205203
0.9787049469546141
0.9787161039080301
0.9787242262112349
0.9787282315034244
0.9787268042317183
0.9787183489038646
0.9787009388807656
0.9786722550637778
0.978629515647241
0.9785693959418975
0.9784879371921729
0.9783804442551797
0.9782413725131718
0.9780642050067524
0.9778413218253438
0.9775638653435829
0.9772216066205087
0.9768028203362441
0.976294178030207
0.9756806718306554
0.9749455832671803
0.9740705133533919
0.9730354922918036
0.971819182176213
0.9703992007858415
0.9687525296592963
0.9668561290622461
0.9646875585466911
0.962224036592749
0.9594551137485346
0.9562788091949517
0.9783951924169452
0.9783960703548121
0.9783972066611604
0.9783987872739225
0.9784008938031012
0.9784034807782225
0.9784064927164321
0.9784098714948101
0.9784135430965768
0.9784174125903492
0.9784213610242469
0.9784252408307399
0.9784288694186123
0.9784320228973503
0.978434427494594
0.9784357494283319
0.9784355837671538
0.978433439181874
0.978428721353771
0.9784207150036207
0.9784085583201911
0.9783912179105708
0.9783674557720256
0.9783357928367563
0.9782944657856943
0.9782413774588786
0.9781740399148258
0.9780895092317721
0.9779843119930512
0.9778543629395287
0.9776948738540816
0.9775002543805341
0.9772640061433413
0.9769786124659962
0.9766354272574399
0.9762245681262885
0.9757348204490067
0.9751535609586514
0.9744667112318735
0.9736587331414892
0.9727126792372356
0.9716103124567607
0.9703323045290134
0.96885853542167
0.9671684586626148
0.9652416339689152
0.9630582880283817
0.9605982963397791
0.9578531917175737
0.9547304204798451
0.9782894855240426
0.9782893575867267
0.9782889828717775
0.978288331659994
0.9782874030190167
0.9782861449158397
0.9782844813367879
0.9782823195068162
0.9782795450720591
0.9782760175807461
0.9782715663305432
0.9782659853732151
0.9782590274687561
0.9782503966075329
0.9782397394299384
0.9782266347809112
0.9782105823213304
0.9781909876751129
0.9781671456544199
0.9781382216513091
0.9781032279464867
0.9780609977805235
0.9780101545273761
0.977949076202691
0.9778758547912785
0.9777882495274167
0.9776836339981133
0.9775589363164471
0.9774105723290385
0.9772343718211476
0.9770254980403419
0.9767783614437989
0.9764865292368369
0.976142633103006
0.9757382785789129
0.9752639607598194
0.9747089923620048
0.9740614515730778
0.9733081584431873
0.9724346897290967
0.9714254425031542
0.9702637577708648
0.9689321104438873
0.9674123835139695
0.9656861936962725
0.9637353517897052
0.9615423717869754
0.959089407785057
0.9563695814728682
0.9532989926065929
0.9781838286279718
0.9781827026455385
0.9781808289221019
0.9781779639693207
0.9781740255684672
0.9781689558679443
0.9781626593318594
0.9781550099126647
0.9781458546507303
0.9781350096756587
0.9781222551088106
0.978107329690694
0.9780899245733452
0.9780696756870095
0.9780461549536656
0.9780188597921139
0.9779872013002938
0.9779504898860938
0.9779079186601873
0.977858544642052
0.9778012664078291
0.9777347985516515
0.9776576423784771
0.9775680521751953
0.9774639969449915
0.9773431169413244
0.9772026748644728
0.9770395013749995
0.9768499349232228
0.9766297561236739
0.9763741172165119
0.9760774676571763
0.9757334774865294
0.9753349608673697
0.9748738030495686
0.9743408950258327
0.9737260812012224
0.9730181264618954
0.9722047099698876
0.9712724537760798
0.9702069944045915
0.9689931061452811
0.967614880166482
0.9660559737555962
0.9642998998213409
0.962330424363754
0.9601320303672345
0.9576888377875389
0.954995235270972
0.9519752931463702
0.9780786351094226
0.9780765229208948
0.9780731681673501
0.9780681163838894
0.9780612055664971
0.9780523727790048
0.9780415039970547
0.9780284413159884
0.9780129949327401
0.9779949396969015
0.9779740091316825
0.9779498897598524
0.9779222147374813
0.9778905561689287
0.9778544161857224
0.9778132165105318
0.9777662864904447
0.977712849097042
0.9776520047115518
0.9775827126029623
0.977503769562152
0.9774137853774548
0.9773111549848459
0.9771940267581019
0.9770602667663445
0.9769074186405275
0.9767326589085553
0.9765327477104268
0.976303975002243
0.976042102627419
0.9757423029463166
0.9753990951474584
0.9750062809016723
0.9745568816539135
0.9740430805744643
0.9734561729931636
0.972786529967516
0.9720235804276834
0.9711558179925839
0.9701708390283436
0.9690554183583495
0.9677956293847271
0.9663770111024553
0.9647847935303712
0.9630041547243162
0.9610205638851986
0.9588202051013697
0.9563889040364171
0.9537220522319522
0.9507510799415163
0.9779743141121507
0.9779712317199024
0.9779664199612659
0.9779592169431865
0.9779493825592653
0.9779368494852985
0.9779214862649308
0.9779031046168961
0.9778814797581279
0.9778563475129496
0.9778273974724341
0.9777942670776207
0.9777565351734732
0.977713714310351
0.9776652417949655
0.9776104693601511
0.9775486512944411
0.9774789307809473
0.977400324190169
0.9773117031403616
0.9772117740651669
0.9770990549359051
0.9769718489790229
0.9768282150672205
0.9766659345965347
0.976482474673502
0.9762749475405968
0.9760400662960161
0.9757740971323279
0.975472808568238
0.9751314184494938
0.9747445398750307
0.9743061276684787
0.973809427552041
0.9732469307776644
0.9726103376080304
0.971890533675464
0.9710775838270886
0.9701607484978402
0.9691285279228112
0.9679687391996942
0.9666686314116132
0.9652150401225936
0.963594590573673
0.9617939257623553
0.9598000028230053
0.9576004805613704
0.9551826725520843
0.9525427564213198
0.9496189699345384
0.9778712686676974
0.9778672360491149
0.97786099713848
0.9778516868554229
0.9778389888043573
0.9778228319066206
0.9778030683264304
0.9777794809182047
0.9777518118457793
0.9777197602459557
0.9776829745297553
0.9776410462557347
0.9775935036756357
0.9775398040608946
0.9774793248144146
0.9774113533063616
0.9773350752531486
0.9772495614536019
0.9771537526641604
0.9770464424115738
0.9769262575585766
0.9767916363640931
0.9766408038695896
0.9764717444227894
0.976282171199887
0.97606949265451
0.9758307759074699
0.9755627072256619
0.9752615499034833
0.9749231000843277
0.9745426413366796
0.9741148991338089
0.9736339967819005
0.9730934147901653
0.9724859561631823
0.9718037205979378
0.9710380910494695
0.9701797365447136
0.9692186353960954
0.9681441230908145
0.9669449687528094
0.965609484179484
0.9641256659458141
0.9624813781647225
0.9606645549683259
0.9586634569146386
0.9564670253656227
0.9540638782168184
0.951450801113372
0.9485723344938281
0.9777698941724792
0.9777649350951808
0.9777573044380038
0.9777459388251054
0.9777304474700057
0.9777107560938234
0.977686701522684
0.9776580392874723
0.9776244804863596
0.9775856899748073
0.9775412777890656
0.9774907928310155
0.9774337164624423
0.977369454904515
0.9772973304818436
0.9772165716907691
0.9771263019237455
0.9770255266810902
0.9769131190946337
0.9767878035868487
0.9766481375106761
0.976492490593603
0.9763190220450576
0.976125655214664
0.9759100497278569
0.975669571098097
0.9754012579033545
0.975101786740873
0.9747674353328877
0.9743940443576218
0.9739769788267477
0.9735110901217726
0.9729906801368378
0.9724094693463763
0.9717605710081116
0.9710364741033906
0.9702290379759474
0.9693295019197977
0.968328513121495
0.9672161763872252
0.9659821286703845
0.9646156414643564
0.963105750994817
0.9614414224190536
0.9596117297664845
0.9576060783033428
0.9554145281342488
0.9530268456996106
0.9504402786919567
0.9476052048880468
0.9776705769501335
0.9776647188153738
0.9776557371195531
0.9776423756873805
0.9776241712808993
0.977601046885508
0.977572825020101
0.9775392354667907
0.9774999603111293
0.9774546325956713
0.9774028268180746
0.9773440524432283
0.9772777475957545
0.9772032715838115
0.9771198963367167
0.9770267967701052
0.9769230399246772
0.9768075727217286
0.9766792081922733
0.9765366100382339
0.9763782753987776
0.97620251570142
0.9760074354999935
0.9757909092397046
0.9755505559340055
0.9752837118075751
0.9749874010487987
0.9746583049325814
0.9742927297217244
0.9738865739359112
0.9734352957938829
0.972933881885038
0.9723768184079219
0.971758066616964
0.9710710444314492
0.9703086164623526
0.9694630949758026
0.9685262545061418
0.9674893629024248
0.9663432315523719
0.9650782871060307
0.9636846670398733
0.9621523386302183
0.9604712464435289
0.9586314724893412
0.9566234297139079
0.9544381566938129
0.952066435281553