/*--------------------------------*- C++ -*----------------------------------*\
| =========                 |                                                 |
| \\      /  F ield         | OpenFOAM: The Open Source CFD Toolbox           |
|  \\    /   O peration     | Version:  v1912                                 |
|   \\  /    A nd           | Website:  www.openfoam.com                      |
|    \\/     M anipulation  |                                                 |
\*---------------------------------------------------------------------------*/
FoamFile
{
    version     2.0;
    format      ascii;
    class       volScalarField;
    location    "1000";
    object      rho_0;
}
// * * * * * * * * * * * * * * * * * * * * * * * * * * * * * * * * * * * * * //

dimensions      [1 -3 0 0 0 0 0];


internalField   nonuniform List<scalar> 
7500
(
0.9799556332802438
0.9799673956137338
0.9799919407380175
0.9800289509228096
0.9800790017867718
0.9801423688551899
0.9802194966182685
0.9803109971812526
0.9804175989657838
0.9805401404729531
0.9806795907605448
0.9808370616473672
0.9810138175471182
0.9812112900319147
0.9814310933415681
0.9816750424267008
0.9819451741145292
0.9822437715378459
0.9825733924390584
0.9829369020709346
0.9833375115177715
0.9837788224742131
0.9842648797746362
0.9848002332839259
0.9853900111759969
0.9860400071690337
0.9867567850001848
0.987547804372
0.9884215738795378
0.9893878381623832
0.9904578089133448
0.9916444527005245
0.9929628532564623
0.9944306726904572
0.9960687457829753
0.9979018589735094
0.9999597829663787
1.002278697403204
1.004903096433677
1.007888532988291
1.011305536181728
1.015246176267478
1.019834203344892
1.025236166645757
1.031685587223612
1.039543405214414
1.049274734244265
1.061735996429976
1.077341625699703
1.073501122683665
0.9799477257444316
0.9799600572961641
0.979983834596755
0.980020376316999
0.9800700435994216
0.9801329511701142
0.9802095718039612
0.9803005579215724
0.9804065736044928
0.9805284285354388
0.9806670901063931
0.9808236612902999
0.9809993954592848
0.9811957117947832
0.9814142100352776
0.9816566882079079
0.9819251633993646
0.9822218956623717
0.9825494156823273
0.9829105568884353
0.9833084927913892
0.9837467805305005
0.984229411849757
0.9847608730153457
0.98534621556774
0.9859911402948449
0.9867020974564193
0.9874864071386997
0.9883524047475584
0.9893096181664423
0.9903689851653974
0.9915431224710668
0.9928466618069429
0.9942966735669002
0.9959132062448731
0.9977199793412797
0.9997452855018418
1.002023237555588
1.004595332069811
1.007512649777314
1.010838803203816
1.014654539419928
1.019064579261184
1.024202439103607
1.030234111499487
1.037355465214085
1.04561286149788
1.054556540794529
1.064655817897085
1.060923421759032
0.9799337868649438
0.9799472284983332
0.9799707032387205
0.9800069565626135
0.9800563043474795
0.9801186834144543
0.9801946034680062
0.9802847037376715
0.9803896913324243
0.9805103863417598
0.9806477360669864
0.9808028256324813
0.980976890076213
0.9811713275071998
0.981387713513036
0.9816278183320694
0.981893626862142
0.9821873616894702
0.982511509698533
0.982868852883905
0.9832625040780961
0.983695948486459
0.9841730921266716
0.9846983185220832
0.9852765553201843
0.9859133529175548
0.98661497769661
0.9873885231532216
0.9882420430642187
0.9891847119704694
0.9902270197103759
0.9913810086221371
0.9926605644492094
0.9940817749058863
0.9956633724334331
0.9974272824392604
0.9993993235536393
1.001610120586592
1.004096067023826
1.006900599627293
1.010075578628605
1.013683210115592
1.017798463766415
1.022507436505256
1.027885282733656
1.033967411038875
1.040627941554584
1.046964257148606
1.053902824366474
1.052073796377942
0.979912630480026
0.9799263898392742
0.9799490975230755
0.9799844681073496
0.9800331029441319
0.9800946749315098
0.9801696012519641
0.9802585108306597
0.9803620765328339
0.9804810950276641
0.9806165006830558
0.9807693608909871
0.9809408862918541
0.9811324452985094
0.9813455783270274
0.9815820141291381
0.9818436888428029
0.9821327678128898
0.9824516706571167
0.9828031001438082
0.9831900755002764
0.9836159709093457
0.9840845601150724
0.9846000682502796
0.9851672322373446
0.9857913714090422
0.9864784703601359
0.9872352764894619
0.9880694152455707
0.9889895267703293
0.9900054284674938
0.991128309055627
0.9923709608756918
0.9937480591178506
0.9952764957477538
0.9969757733409642
0.9988684528193074
1.000980374792078
1.003341449207112
1.005985750464236
1.008951546631749
1.012280110201044
1.016012920701602
1.020178903552113
1.024765344928864
1.029676784444731
1.034691178162814
1.038747323347294
1.042623596833983
1.040124523484959
0.979885074698635
0.979899410062954
0.9799219724332406
0.9799566303160476
0.9800043649078087
0.9800648141546179
0.9801383367539186
0.9802255741161762
0.9803271956618057
0.9804439775349895
0.9805768271114569
0.9807267808548117
0.980895014664084
0.9810828570920145
0.9812918023816884
0.9815235256804278
0.9817799007805118
0.9820630203388589
0.982375218982487
0.9827190997752593
0.9830975645413745
0.9835138486415168
0.9839715609102653
0.9844747295835152
0.9850278551835646
0.9856359714835878
0.9863047158339142
0.9870404102842465
0.9878501550462093
0.9887419358510984
0.9897247465496354
0.9908087277178126
0.9920053206602385
0.9933274343123066
0.9947896213133537
0.9964082494112413
0.9982016461116722
1.000190175645626
1.002395920960289
1.004842302532827
1.007553335569607
1.010550059788902
1.013838595039307
1.017402253048004
1.021171133298286
1.02497537148724
1.028578315158606
1.031074992082127
1.032768190378481
1.030163625451575
0.9798507609175025
0.9798650641183172
0.9798870975027566
0.9799206800211302
0.9799671258898451
0.9800261343270946
0.9800979526061573
0.9801831717326676
0.9802824284971903
0.9803964626641013
0.9805261483131116
0.9806724865186291
0.980836611455443
0.9810198028121526
0.9812234979920111
0.9814493058998114
0.981699023022448
0.981974651703783
0.9822784208680787
0.9826128095522956
0.9829805736029836
0.9833847759462023
0.9838288208970754
0.9843164930227886
0.9848520011128656
0.9854400278330926
0.9860857856242339
0.9867950793217752
0.9875743757624751
0.9884308802111633
0.989372618580863
0.9904085228406139
0.9915485138037048
0.9928035699720154
0.9941857624932106
0.9957082206170026
0.9973849411531213
0.9992304639119409
1.001259082657338
1.003484272261263
1.00591501546675
1.008549421287858
1.011369124001352
1.014323787796087
1.017310012360341
1.020126466900784
1.022538247419947
1.023866608149124
1.024044256841669
1.021206176389811
0.9798101486462911
0.9798244422274985
0.9798461457610169
0.9798788453148688
0.9799239673190656
0.9799813227832678
0.9800511163061999
0.980133911475376
0.9802303333421724
0.9803410936070713
0.9804670288070507
0.9806090974473985
0.9807683845437621
0.9809461127194252
0.9811436532441283
0.9813625383011251
0.9816044752562437
0.9818713627617273
0.9821653088224898
0.9824886510691947
0.9828439794432021
0.9832341614979433
0.983662370517139
0.9841321166126769
0.9846472808873081
0.9852121526088621
0.9858314691050104
0.986510457698636
0.987254878384519
0.9880710649781597
0.9889659609388648
0.9899471438444182
0.9910228287636481
0.9922018355786342
0.9934934921448807
0.9949074295625825
0.9964531748968066
0.9981395935261309
0.9999740657328515
1.00196035501944
1.00409301098582
1.00635454249001
1.008707247183411
1.011079671821558
1.013353301011236
1.015326857355483
1.016774896784807
1.017217583979316
1.01642117346743
1.013292505843987
0.9797632410378332
0.9797772154829069
0.9797983014187452
0.9798298616296074
0.979873348862755
0.9799287033057807
0.9799961145759375
0.9800760959755853
0.9801692383941022
0.9802762139671419
0.9803978129745857
0.9805349434155051
0.9806886330038779
0.980860038334018
0.9810504546152584
0.9812613261841157
0.9814942586436731
0.9817510325032021
0.9820336182980386
0.9823441932907482
0.9826851598055671
0.9830591652031826
0.983469123446356
0.9839182381029891
0.9844100264663628
0.9849483442165355
0.9855374096459705
0.9861818258620404
0.9868865984308177
0.9876571444578353
0.9884992868810913
0.9894192245988176
0.9904234634631802
0.9915186862370438
0.9927115181808309
0.9940081632216453
0.9954138657948569
0.9969323213796869
0.9985641184098935
1.00030273646788
1.002133364259098
1.004026661505029
1.005932150727237
1.007767838059543
1.009412439071658
1.010680779661965
1.011362820720548
1.011119577111749
1.00968709657679
1.006321477433924
0.9797103289507461
0.9797239342360999
0.9797443792732569
0.9797748158709946
0.9798166310365147
0.9798698400423046
0.9799346356578026
0.9800114935699035
0.9801009755736902
0.980203719031056
0.9803204683841344
0.9804520782510044
0.9805995148265879
0.9807638632639457
0.9809463360262449
0.9811482817113889
0.9813711950627821
0.9816167280647088
0.9818867019871658
0.9821831203430073
0.9825081826544088
0.9828642988321532
0.9832541038570095
0.983680472277064
0.9841465317783763
0.9846556747192876
0.9852115659767123
0.9858181447021618
0.9864796164396191
0.9872004304633583
0.9879852350403121
0.9888387997780086
0.9897658867756757
0.9907710448501688
0.9918582981697865
0.9930307169343571
0.9942899121803598
0.9956347384699259
0.9970586687098544
0.9985488648517058
1.000082711108134
1.001622841546067
1.003111777919198
1.004464418012157
1.005563817876092
1.00624709518976
1.006325677676531
1.005549616316204
1.003685465592542
1.000159627359051
0.979651586798064
0.9796646797258903
0.9796843035051584
0.9797134225145645
0.9797533384826439
0.9798041159518501
0.9798659616833576
0.9799393192212404
0.9800247144222186
0.9801227437166804
0.9802341002970859
0.9803595791055817
0.9805000780138196
0.9806566034893153
0.9808302774192577
0.9810223441550248
0.9812341782814618
0.9814672930539502
0.9817233492863821
0.9820041645198175
0.9823117222271073
0.9826481806803082
0.9830158809486211
0.9834173532592454
0.9838553206298644
0.9843326982078444
0.9848525860804325
0.9854182524360112
0.9860331025165937
0.9867006272034603
0.9874243224682577
0.9882075657811621
0.9890534283679737
0.989964416750186
0.9909421335336166
0.9919868731465826
0.9930966928545859
0.9942654683601669
0.9954823775499833
0.9967293720874926
0.9979783357336821
0.9991872158982168
1.000295864288
1.001220931734191
1.001853606145977
1.002053148859395
1.001655601727077
1.000467160309835
0.9982995244898971
0.9946802868752511
0.9795872897281401
0.9795998079521059
0.9796185305092209
0.9796462470266876
0.9796841640843109
0.9797323612238114
0.979791049085431
0.9798606412928943
0.9799416265613283
0.9800345590832051
0.9801400797365873
0.9802589215271325
0.9803919107727505
0.9805399712646052
0.9807041294789279
0.9808855198340762
0.981085390241647
0.9813051078777113
0.9815461648923338
0.9818101837662335
0.9820989219357764
0.9824142751502525
0.982758278833776
0.9831331064386702
0.9835410634312662
0.9839845749868438
0.9844661648236513
0.9849884216797975
0.9855539483368772
0.9861652867802586
0.9868248087481556
0.9875345562350469
0.9882960320693661
0.9891099193419436
0.9899757911975274
0.9908912089683569
0.9918506069314036
0.9928448437413349
0.9938594490855203
0.9948726251420233
0.9958528773084603
0.9967560479069689
0.9975222875893278
0.998072806154303
0.998308650340912
0.9981087652801527
0.9973335029827924
0.9958270232875486
0.9934418260021149
0.989778103630288
0.9795177017329055
0.9795295616641594
0.9795472677063256
0.9795734352325962
0.9796091777160352
0.9796545755674946
0.9797098370982813
0.9797753482997245
0.9798515602209966
0.9799389824342393
0.9800382010343422
0.9801498838775963
0.9802747817600067
0.9804137313741886
0.9805676589822983
0.9807375839206192
0.9809246219917833
0.9811299886366325
0.9813550015616015
0.9816010824325213
0.9818697571413187
0.9821626539705786
0.9824814987649709
0.9828281058810476
0.9832043633476133
0.9836122099647819
0.9840536016470256
0.9845304629683166
0.9850446183317738
0.9855976961141485
0.9861909923227657
0.9868252985216294
0.9875006878159067
0.9882162857126865
0.9889695242801951
0.9897554493374985
0.9905662656396719
0.9913902008927626
0.9922101019682126
0.9930017685645932
0.9937320136590568
0.9943564632815689
0.9948174576060725
0.9950421322130462
0.994941826914082
0.9944123579453501
0.9933358621173585
0.9915845116856
0.9890428171964778
0.9853677992518086
0.9794431256878539
0.9794542685405435
0.9794708770769441
0.9794953903427653
0.9795288318513449
0.9795712736021485
0.9796229120282286
0.9796841025555474
0.9797552565369959
0.9798368364749899
0.979929371613583
0.9800334624925551
0.9801497818168433
0.9802790762793444
0.9804221687037581
0.9805799597972695
0.9807534294365264
0.9809436373191409
0.9811517226164523
0.9813789021603377
0.9816264665778416
0.9818957735912898
0.9821882374695536
0.9825053132720984
0.9828484742036491
0.9832191795817655
0.98361883088336
0.9840487105869734
0.9845098994560348
0.9850031656526406
0.9855288217370277
0.9860865446033523
0.9866752331109386
0.9872922696281453
0.9879332555232375
0.988591577385455
0.9892575209558364
0.9899173474086193
0.990552121412524
0.9911363305193267
0.991636363528527
0.9920089256008248
0.9921996443463127
0.9921420460880394
0.9917574128482937
0.9909559377020338
0.9896382696646973
0.9876985071573914
0.985045445389396
0.9813816482009342
0.9793638772069485
0.9793742445054687
0.9793896728827737
0.9794124190754528
0.9794434185870434
0.9794827316495417
0.9795305372793486
0.9795871581712258
0.9796529649497026
0.9797283716886476
0.9798138494150658
0.9799099298450372
0.9800172057647091
0.9801363318187434
0.9802680252375319
0.980413065928057
0.9805722957742482
0.9807466169233261
0.9809369886573737
0.9811444223255341
0.9813699736735277
0.9816147317177267
0.9818798030257474
0.9821662900662156
0.9824752616835073
0.9828077132021884
0.9831645135164708
0.9835463323518708
0.9839535507259626
0.9843861493228391
0.9848435466360361
0.9853245130625143
0.985826505621463
0.9863456462360847
0.9868762418993506
0.9874102208844983
0.9879364162250519
0.9884397465156007
0.9889002367239433
0.9892919133908865
0.9895816487254311
0.9897280510464441
0.9896805846687231
0.9893791189779364
0.9887541117242272
0.9877280286495819
0.986216889515882
0.9841323878092584
0.9814018990285021
0.9777647707101662
0.9792802936243626
0.9792898371626479
0.9793040170021261
0.9793249018940466
0.9793533408307405
0.9793893811476817
0.9794331804548239
0.9794850257828386
0.9795452450568288
0.9796142021592731
0.9796923083731685
0.9797800252192796
0.9798778641892575
0.9799863865049034
0.9801062024955849
0.9802379701027556
0.9803823923092678
0.9805402132274113
0.9807122124052216
0.9808991967994596
0.9811019896761636
0.9813214156115259
0.9815582802404824
0.9818133437828109
0.9820872853601604
0.9823806570410195
0.982693823546127
0.9830268842564168
0.9833795910729228
0.983751212350312
0.9841404302294158
0.9845448403599791
0.9849610000439285
0.9853840083470035
0.9858070653778078
0.9862209855656628
0.9866135795770243
0.9869689429783958
0.9872666557716506
0.9874809203188788
0.9875797067878159
0.9875240018271834
0.9872672946325735
0.986755481324937
0.9859272663856423
0.9847156025751685
0.9830491993034901
0.9808539697786898
0.9780717647162573
0.9744719953444057
0.9791927274906709
0.9792014040561807
0.979214273308937
0.9792332099082582
0.9792589768001481
0.9792916083486756
0.9793312386541966
0.9793781171369162
0.9794325276463617
0.9794947828285622
0.9795652334435166
0.9796442702292093
0.9797323228988223
0.9798298588888946
0.9799373814741762
0.980055426798165
0.9801845595783639
0.9803253671967946
0.9804784516816724
0.9806444190662945
0.9808238652420715
0.9810173577201844
0.9812254113064974
0.9814484578597529
0.9816868045817434
0.9819405858368941
0.9822096993400254
0.9824937285945859
0.9827918657487702
0.9831027183806654
0.9834240845061227
0.9837528880869406
0.9840848645436763
0.9844142470678313
0.9847333833389198
0.9850322884350284
0.9852981158801657
0.9855145611154612
0.9856612180010628
0.9857129197110931
0.9856391239711998
0.9854034266617477
0.984963304428769
0.9842702353583336
0.9832702261610836
0.9819051850704231
0.9801143199708603
0.9778350673306357
0.9750207131665404
0.9714656587189978
0.9791015466927503
0.9791093197165361
0.9791208256563845
0.9791377396190785
0.9791607387681971
0.9791898449554834
0.9792251677240027
0.9792669175262603
0.9793153329198701
0.9793706743797334
0.9794332315318661
0.9795033240105913
0.9795812996858307
0.9796675324279727
0.9797624190445983
0.9798663749528755
0.9799798283204614
0.9801032123784315
0.9802369553346355
0.9803814675423301
0.9805371246196178
0.98070424667186
0.9808830700661865
0.9810737149780643
0.9812761391988444
0.9814900957680428
0.9817150540345873
0.9819501569729376
0.9821939860622884
0.9824445333560196
0.9826990324554968
0.9829537543965863
0.983203756747883
0.9834426004908264
0.9836620060491689
0.9838514579835824
0.9839977580069106
0.9840845352334259
0.984091737695529
0.9839951383553399
0.9837659064894508
0.9833703144520258
0.982769656738708
0.9819204991804219
0.9807752624108056
0.9792834949401786
0.9773931280048269
0.9750509724799101
0.972219421512424
0.9687140304386187
0.9790071317826728
0.9790139702150908
0.9790240678483872
0.9790388952957301
0.9790590439539419
0.9790845237804418
0.979115419413577
0.979151901699132
0.97919416325157
0.9792424119531976
0.9792968762212345
0.9793578048542189
0.979425464487418
0.9795001364182877
0.9795821124579314
0.979671689365557
0.9797691616182502
0.9798748121751866
0.9799889005675814
0.9801116483184968
0.9802432193878879
0.9803836978130521
0.9805330563773482
0.9806911251334546
0.9808575426867848
0.9810317149039075
0.9812127223457046
0.9813991931079306
0.9815892777045905
0.9817804829847492
0.981969519323571
0.9821521176396386
0.9823228026379329
0.9824746325447162
0.9825988971806416
0.9826847767962382
0.9827189683451417
0.9826852899952619
0.9825642864433179
0.9823328667577061
0.9819640177784064
0.9814266500247548
0.9806856352629661
0.979702127789435
0.9784341576824748
0.9768377899041442
0.9748682353518129
0.9724799750260676
0.969642688993422
0.9661901450659816
0.9789098744201118
0.9789157528357274
0.978924405249005
0.9789370936205793
0.9789543236130073
0.9789760940164349
0.9790024646520625
0.9790335666300123
0.9790695464145545
0.9791105592493569
0.9791567726323577
0.9792083651960048
0.9792655234260155
0.9793284376131995
0.9793972967293414
0.9794722817458847
0.9795535572726024
0.9796412609053304
0.9797354896752207
0.9798362841844866
0.9799436067472905
0.980057319323457
0.9801771519816255
0.9803026650765937
0.9804332173826449
0.9805678440995049
0.98070525190365
0.9808437183253325
0.9809809875118317
0.9811141420717651
0.9812394599679017
0.9813522416933675
0.9814466062163271
0.9815152581979854
0.9815492254658013
0.9815375692831662
0.9814670759130643
0.9813219418442457
0.9810834730705905
0.9807298268278183
0.9802358319241562
0.9795729335257136
0.9787093076523125
0.9776102174249263
0.9762385877414379
0.9745560453276014
0.9725238998544027
0.9701029504756463
0.96726872631883
0.9638709077875236
0.9788101753638666
0.9788150736442534
0.9788222516068653
0.9788327592093192
0.978847016472709
0.9788650117793347
0.9788867805041134
0.9789124143054113
0.9789420137439935
0.9789756818196311
0.979013525835715
0.9790556553904828
0.9791021784278738
0.9791531963944007
0.9792087982445531
0.9792690527293672
0.9793339991618851
0.9794036353505885
0.9794779030154966
0.9795566716056836
0.9796397160041928
0.9797266915012733
0.9798171072589713
0.979910259537762
0.9800052025027427
0.980100703963699
0.9801951572986894
0.9802865071062462
0.9803721500282775
0.9804488166261435
0.9805124354776936
0.9805579750981305
0.9805792619682042
0.9805687755216835
0.9805174222745474
0.9804142929898573
0.9802464114572835
0.9799984875539135
0.979652692866256
0.9791884834268652
0.9785824995900552
0.9778085797894436
0.9768379223940403
0.9756394523185746
0.9741803612642044
0.9724270300685842
0.9703458971819497
0.9679030029062894
0.965078582518794
0.9617363951164808
0.9787084426438579
0.9787123458591392
0.9787180277157832
0.9787263236905432
0.9787375683949867
0.9787517405814232
0.9787688517447427
0.9787889546799273
0.978812104660986
0.9788383532245285
0.9788677485922312
0.9789003328697699
0.9789361375150912
0.9789751777487056
0.9790174457599505
0.9790629021432073
0.9791114662377347
0.9791630030088155
0.9792173087363395
0.9792740921000744
0.979332955632478
0.9793933512605625
0.9794545605192851
0.9795156613022227
0.9795754670866111
0.9796324820278022
0.9796848252451746
0.9797301560785067
0.979765580326963
0.9797875410959483
0.9797916935885271
0.9797727622022682
0.9797243794236916
0.9796389076120549
0.9795072468238211
0.9793186335884457
0.9790604389599284
0.9787179778768376
0.9782743460327666
0.9777103051044461
0.9770042410056206
0.976132224473179
0.9750681994652821
0.973784344103282
0.9722515686508971
0.9704403261460244
0.9683213846431384
0.9658651625708573
0.96305568779291
0.9597693078101475
0.9786050896745855
0.9786079879119668
0.9786121593693377
0.9786182234463223
0.9786264297484388
0.9786367481793682
0.9786491670652636
0.9786637011682043
0.9786803614088009
0.9786991489855646
0.9787200544850229
0.9787430543877652
0.9787681060570603
0.9787951415146309
0.9788240601081931
0.9788547196413926
0.978886926131432
0.9789204193126944
0.9789548582649363
0.978989794332294
0.9790246562551081
0.9790587241188411
0.9790910889847302
0.9791206205512216
0.9791459150786623
0.9791652457354761
0.9791764951722934
0.9791770814810468
0.9791638714504337
0.9791330804070165
0.9790801583683362
0.9789996622718287
0.9788851146471713
0.9787288503279248
0.978521854686164
0.9782535987238113
0.9779118789387603
0.977482672930526
0.9769500248977313
0.976295978540719
0.9755005774362387
0.9745419561401959
0.97339654066526
0.9720393937431433
0.9704446677249066
0.9685863123099392
0.966438764890431
0.9639761261727625
0.9611854821876438
0.9579545355663344
0.978500533425712
0.9785024216681943
0.9785050756249924
0.9785088978998422
0.9785140536938181
0.9785205048372176
0.9785282172990791
0.9785371688103809
0.978547327104443
0.9785586444440667
0.9785710555668429
0.9785844736632496
0.9785987849937452
0.9786138421591415
0.9786294561022564
0.9786453874488028
0.9786613310606248
0.9786769064355593
0.9786916400126795
0.9787049469384786
0.978716103884403
0.9787242261810077
0.9787282314675645
0.978726804191252
0.9787183488598608
0.9787009388343184
0.9786722550159934
0.97862951559922
0.9785693958947187
0.9784879371468818
0.9783804442127737
0.9782413724745893
0.9780642049728622
0.9778413217969372
0.9775638653213663
0.9772216066050993
0.9768028203281653
0.9762941780298889
0.9756806718384345
0.9749455832833017
0.9740705133780148
0.9730354923250027
0.9718191822179872
0.9703992008361179
0.9687525297179362
0.9668561291290525
0.9646875586214095
0.9622240366750794
0.9594551138381132
0.956278809291456
0.9783951925349321
0.9783960704799879
0.9783972067857499
0.9783987873952379
0.9784008939206386
0.9784034808909106
0.978406492822987
0.9784098715941251
0.9784135431877204
0.9784174126725306
0.9784213610968209
0.9784252408932183
0.9784288694706712
0.978432022938829
0.9784344275254925
0.9784357494488084
0.9784355837775163
0.9784334391825729
0.9784287213453896
0.9784207149868611
0.9784085582958616
0.9783912178795713
0.9783674557353321
0.9783357927954054
0.9782944657407661
0.9782413774114802
0.9781740398660761
0.9780895091827857
0.9779843119449224
0.9778543628933184
0.9776948738108044
0.977500254341145
0.9772640061087273
0.9769786124369653
0.9766354272347159
0.9762245681105051
0.9757348204407031
0.9751535609582724
0.9744667112397687
0.9736587331579128
0.9727126792623525
0.9716103124906492
0.9703323045716692
0.9688585354730116
0.9671684587224882
0.9652416340370985
0.9630582881045864
0.9605982964236546
0.9578531918086844
0.9547304205777754
0.9782894856425611
0.9782893577125288
0.9782889829969956
0.9782883317819133
0.9782874031371315
0.9782861450290692
0.9782844814438356
0.9782823196065651
0.9782795451635684
0.9782760176632164
0.9782715664033224
0.9782659854358094
0.9782590275208369
0.9782503966489361
0.9782397394606626
0.9782266348011135
0.9782105823313206
0.978190987675345
0.9781671456454797
0.9781382216339048
0.9781032279214333
0.9780609977487295
0.9780101544898263
0.9779490761604324
0.9778758547454032
0.9777882494790456
0.9776836339483785
0.9775589362664772
0.9774105722799441
0.9772343717740054
0.9770254979961833
0.9767783614035972
0.9764865292014956
0.9761426330733515
0.9757382785556868
0.9752639607436719
0.9747089923534921
0.9740614515726596
0.9733081584512253
0.9724346897458566
0.9714254425288048
0.9702637578054855
0.9689321104874664
0.9674123835664106
0.9656861937573953
0.9637353518592499
0.9615423718646023
0.9590894078703516
0.9563695815653237
0.9532989927057252
0.9781838287470263
0.9781827027719744
0.9781808290479573
0.9781779640918526
0.9781740256871686
0.9781689559817257
0.9781626594394105
0.9781550100128565
0.9781458547426132
0.9781350097584235
0.9781222551817982
0.9781073297534051
0.978089924625446
0.9780696757283324
0.9780461549842074
0.9780188598120317
0.9779872013098989
0.9779504898858427
0.9779079186506708
0.9778585446239839
0.9778012663820316
0.9777347985190417
0.9776576423400496
0.9775680521320083
0.9774639968981497
0.977343116891961
0.9772026748137346
0.9770395013240307
0.9768499348731499
0.9766297560755903
0.9763741171714666
0.9760774676161604
0.9757334774504655
0.9753349608371017
0.9748738030258541
0.9743408950093395
0.9737260811925207
0.9730181264614566
0.9722047099780817
0.9712724537931758
0.9702069944307579
0.9689931061805895
0.9676148802109095
0.9660559738090274
0.9642998998835708
0.9623304244344929
0.9601320304461075
0.9576888378740911
0.95499523536465
0.9519752932466296
0.9780786352290143
0.9780765230479688
0.9780731682938488
0.9780681165070412
0.9780612056857939
0.9780523728933467
0.9780415041051178
0.9780284414166313
0.9780129950250025
0.9779949397799658
0.9779740092048805
0.9779498898226793
0.9779222147895983
0.9778905562101645
0.9778544162160724
0.9778132165301539
0.977766286499651
0.9777128490962926
0.9776520047014418
0.9775827125842117
0.9775037695355913
0.9774137853440091
0.9773111549455207
0.9771940267139676
0.9770602667185174
0.9769074185901551
0.9767326588567989
0.9765327476584466
0.976303974951182
0.9760421025783875
0.9757423029003806
0.9753990951056249
0.9750062808648812
0.9745568816230259
0.9740430805502538
0.9734561729763127
0.9727865299586087
0.9720235804272034
0.9711558180009127
0.9701708390457601
0.9690554183850295
0.9677956294207455
0.9663770111477861
0.9647847935848902
0.9630041547878007
0.9610205639573254
0.9588202051817141
0.9563889041244518
0.9537220523270171
0.9507510800429256
0.9779743142322791
0.9779712318476175
0.9779664200884117
0.9779592170669639
0.977949382679164
0.9779368496002073
0.9779214863735118
0.9779031047179959
0.9778814798507749
0.9778563475963159
0.9778273975458441
0.9777942671405613
0.9777565352256012
0.977713714351493
0.9776652418251151
0.9776104693794651
0.9775486513032348
0.977478930779684
0.9774003241794494
0.9773117031209116
0.9772117740378249
0.9770990549016062
0.9769718489387829
0.9768282150221208
0.9766659345477056
0.9764824746221046
0.9762749474878072
0.9760400662430099
0.975774097080264
0.9754728085182446
0.9751314184026545
0.9747445398323716
0.974306127630959
0.973809427520542
0.9732469307529796
0.9726103375908614
0.9718905336664118
0.9710775838266525
0.9701607485064123
0.9691285279406751
0.967968739227022
0.9666686314484678
0.9652150401689259
0.9635945906293241
0.9617939258270554
0.9598000028963747
0.9576004806429181
0.9551826726412119
0.9525427565172999
0.9496189700366382
0.9778712687883598
0.9778672361774706
0.9778609972662754
0.9778516869798283
0.9778389889248624
0.9778228320221027
0.977803068435536
0.9777794810197664
0.977751811938814
0.9777197603296257
0.9776829746033762
0.9776410463187865
0.97759350372777
0.9775398041019351
0.9774793248443535
0.9774113533253564
0.9773350752615165
0.9772495614518099
0.9771537526528145
0.9770464423914068
0.976926257530435
0.9767916363289214
0.9766408038284149
0.9764717443767054
0.9762821711500371
0.9760694926020705
0.9758307758536336
0.9755627071716211
0.9752615498504165
0.9749231000333816
0.9745426412889571
0.9741148990903548
0.9736339967436898
0.9730934147580955
0.9724859561380602
0.971803720580473
0.9710380910402689
0.9701797365442781
0.9692186354048153
0.9681441231089681
0.9669449687805609
0.9656094842168855
0.9641256659928061
0.9624813782211333
0.9606645550338703
0.9586634569889184
0.9564670254481217
0.9540638783069056
0.9514508012102777
0.9485723345967484
0.9777698942936706
0.977764935224175
0.9777573045664479
0.9777459389501401
0.9777304475911195
0.9777107562098829
0.9776867016323181
0.9776580393894989
0.9776244805797832
0.977585690058781
0.9775412778628954
0.9774907928941747
0.9774337165145768
0.9773694549454449
0.9772973305115611
0.9772165717094324
0.9771263019316735
0.9770255266787539
0.976913119082645
0.9767878035659483
0.9766481374817192
0.9764924905575453
0.9763190220029385
0.9761256551675904
0.9759100496769862
0.9756695710446209
0.9754012578484802
0.9751017866858088
0.9747674352788251
0.9743940443057226
0.9739769787781274
0.9735110900774897
0.9729906800978823
0.9724094693136585
0.9717605709824545
0.971036474085522
0.9702290379664942
0.9693295019192812
0.9683285131303268
0.9672161764057027
0.965982128698688
0.9646156415025472
0.9631057510428337
0.9614414224767064
0.9596117298334536
0.9576060783791746
0.9554145282183487
0.9530268457912427
0.9504402787902078
0.9476052049919271
0.977670577071849
0.977664718945003
0.9776557372486453
0.9776423758130449
0.9776241714026243
0.9776010470021479
0.9775728251302663
0.9775392355692839
0.9774999604049437
0.9774546326799475
0.9774028268921086
0.9773440525064873
0.9772777476478806
0.9772032716246215
0.9771198963662014
0.9770267967884236
0.9769230399321525
0.9768075727188367
0.9766792081796319
0.9765366100165914
0.9763782753689981
0.9762025156644686
0.9760074354569195
0.9757909091916246
0.9755505558820888
0.9752837117530256
0.9749874009928384
0.9746583048764342
0.9742927296666013
0.9738865738829942
0.9734352957443128
0.9729338818399003
0.9723768183682333
0.9717580665836629
0.9710710444053849
0.9703086164442757
0.969463094966356
0.9685262545058531
0.9674893629117035
0.966343231571501
0.9650782871351653
0.9636846670790371
0.9621523386793029
0.9604712465022907
0.9586314725574027
0.9566234297907544
0.9544381567787877
0.9520664353738559