/*--------------------------------*- C++ -*----------------------------------*\
| =========                 |                                                 |
| \\      /  F ield         | OpenFOAM: The Open Source CFD Toolbox           |
|  \\    /   O peration     | Version:  v1912                                 |
|   \\  /    A nd           | Website:  www.openfoam.com                      |
|    \\/     M anipulation  |                                                 |
\*---------------------------------------------------------------------------*/
FoamFile
{
    version     2.0;
    format      ascii;
    class       volScalarField;
    location    "1000";
    object      T;
}
// * * * * * * * * * * * * * * * * * * * * * * * * * * * * * * * * * * * * * //

dimensions      [0 0 0 1 0 0 0];


internalField   nonuniform List<scalar> 
7500
(
264.9335550934292
264.9348954480856
264.9375660031905
264.9415824518765
264.9470030035418
264.953863666201
264.9622144783726
264.9721213160901
264.9836625230375
264.9969287035469
265.0120245073615
265.0290698829098
265.0482012283642
265.0695729137188
265.0933589451705
265.1197548966703
265.1489801632769
265.1812805629875
265.2169313495266
265.2562407106634
265.2995538393133
265.3472576865004
265.3997865319251
265.4576285414043
265.5213335241229
265.5915221596916
265.6688970401716
265.7542559723639
265.848508120511
265.9526937532777
266.0680086122322
266.1958342730395
266.3377763740402
266.4957133085506
266.6718590974921
266.8688458021302
267.0898338930413
267.3386628433178
267.6200566980257
267.9399192232033
268.3057714610925
268.7274066858688
269.21796921546
269.7956574738715
270.4861305333313
271.3315359697262
272.3893793576889
273.8109819151557
275.5652155733631
278.9441976306733
264.9326826495241
264.9340594377597
264.9366718290027
264.9406457861701
264.9460265818741
264.9528394950994
264.9611375692077
264.9709889858162
264.9824668168249
264.9956590815415
265.0106698921497
265.0276182285974
265.0466393251698
265.0678862268346
265.0915313891606
265.1177685747613
265.1468150639334
265.1789142014752
265.2143383418687
265.253392263704
265.2964171362174
265.3437951412523
265.3959548786224
265.453377713725
265.5166052662122
265.5862482903594
265.6629972655116
265.7476351044172
265.841052506512
265.9442666438508
266.0584440860205
266.1849291713058
266.3252794471273
266.4813103832124
266.6551523469452
266.8493237521475
267.0668282425955
267.3112851628644
267.5870994373238
267.8996984600076
268.2558617830962
268.664200889883
269.1358726986365
269.6855329193403
270.3319747008592
271.0997323805811
272.0037585864027
273.0386902156793
273.9999979969134
275.0430291655296
264.9311666169116
264.9326246080945
264.9352232360357
264.9391763633615
264.9445255411123
264.951284469709
264.9595085691384
264.9692662136787
264.9806343266048
264.9937018183218
265.0085711304688
265.0253594690946
265.0442001268802
265.0652439008406
265.088660657352
265.1146411707122
265.1433992553036
265.1751742193218
265.2102336968981
265.2488769232403
265.2914385283671
265.3382929429356
265.3898595310863
265.446608591633
265.5090684025775
265.577833526802
265.6535746516361
265.7370503055667
265.8291208866308
265.9307655553889
266.0431026989883
266.1674148721189
266.3051793733937
266.4581059398602
266.6281833253312
266.8177370148501
267.0295045677256
267.266728735798
267.5332642135688
267.8337151487735
268.1735947077842
268.5595525761623
268.9996352989004
269.5031867637574
270.0789212895424
270.7313179711549
271.4512509750027
272.1886196280067
272.7915299726259
273.1014388383323
264.9288653417246
264.9303239981663
264.932851303706
264.9367239331673
264.9420001940393
264.9486739663126
264.9567928415067
264.9664231864159
264.9776386526548
264.9905259067561
265.0051859144743
265.0217339558197
265.0403007471944
265.0610339332808
265.0840996254727
265.10968415919
265.1379961262468
265.1692687007217
265.2037623076034
265.2417676925864
265.2836094585307
265.3296501480685
265.3802949686152
265.435997276032
265.4972649580434
265.5646678892371
265.6388466673899
265.7205228877449
265.8105112698117
265.9097340228363
266.0192379246236
266.1402146977468
266.2740254065922
266.4222297619253
266.5866214237974
266.7692697299782
266.9725597005377
267.1992320516186
267.4524503298289
267.7358299391421
268.0534375792626
268.4097026309067
268.8089580270133
269.2544015845288
269.7455884246412
270.2724014725292
270.8076978658109
271.2840819181592
271.5918902198438
271.5821256878951
264.9258865516637
264.9273779156966
264.9298833496103
264.9336873431927
264.9388712756864
264.9454262468411
264.9533959084942
264.9628474618181
264.973854079357
264.9865004100449
265.0008846637179
265.0171188837625
265.0353300898641
265.0556616587173
265.0782747466453
265.1033499291031
265.1310890935307
265.1617175945607
265.1954867132774
265.232676469088
265.2735988365973
265.318601429756
265.3680717268189
265.4224419219876
265.4821945037367
265.5478686753835
265.6200677495451
265.6994676630309
265.786826769079
265.8829970631952
265.9889369762806
266.1057258036812
266.2345797078701
266.3768690014832
266.5341362114319
266.7081145209053
266.9007437946264
267.114173556846
267.3507342597617
267.6129227103776
267.9033124882167
268.2240392662492
268.5758506965589
268.9569100132896
269.3602119695545
269.7683055544011
270.1489628570874
270.4420707872092
270.5616792757414
270.3915584622349
264.922171775365
264.9236412843079
264.9260800113257
264.9297730135739
264.9348233881526
264.9412249198568
264.9490120968922
264.958247024977
264.9689991999755
264.9813495130571
264.9953926289559
265.0112367717815
265.0290044930348
265.0488339421576
265.0708801844754
265.0953166909278
265.1223370558072
265.1521569446983
265.1850163001208
265.2211818410883
265.2609498939413
265.3046495969246
265.35264652647
265.4053467977574
265.4632016958523
265.5267128954381
265.5964383247398
265.6729987192222
265.7570848872244
265.8494656615803
265.9509964196678
266.0626278766072
266.185414535253
266.3205215462573
266.4692277254411
266.6329206589769
266.8130781826453
267.0112298878211
267.2288956177603
267.4674731451653
267.7278614513776
268.0099149183802
268.3116961526138
268.6278014174767
268.9472008625011
269.2495033440186
269.502521646389
269.657648370943
269.6531459567903
269.4032720074724
264.9177787392399
264.919236048072
264.9216276271614
264.9252236624819
264.9301338170968
264.9363582818411
264.9439279174504
264.9529022353211
264.9633490399099
264.9753461868638
264.9889843983548
265.0043673540348
265.0216123345879
265.040851364153
265.062232400753
265.085920664955
265.1121001647342
265.1409754109995
265.1727733389509
265.2077454589131
265.2461702577248
265.2883558714353
265.3346430488546
265.3854084210209
265.4410680828464
265.5020814777636
265.5689555501906
265.6422490885381
265.7225771152068
265.8106150755713
265.9071024206746
266.012844930519
266.1287147834295
266.2556467054332
266.3946274594362
266.5466725886183
266.7127854885322
266.8939047825391
267.0908077782398
267.3038188772218
267.5323750694463
267.7746243377852
268.0265436975114
268.2805294872109
268.5237200363476
268.7356786116514
268.8871068508431
268.9384086276788
268.84481990553
268.5469285336721
264.9127018433212
264.9141193966724
264.9164342773366
264.9199031384483
264.9246382088664
264.9306478932709
264.9379609683726
264.9466321500744
264.9567253739534
264.9683141613444
264.9814843022078
264.996334044416
265.0129745023942
265.0315306080771
265.0521421496622
265.0749649107411
265.1001719692744
265.1279551500597
265.1585266316139
265.1921207163006
265.2289957682863
265.2694363191237
265.313755334086
265.3622966208114
265.4154373436191
265.4735905788219
265.5372078030323
265.6067811404357
265.6828450925946
265.7659773160877
265.8567977850053
265.955965310645
266.0641698858577
266.1821181838126
266.3105085694586
266.4499909597829
266.6011187428654
266.7642750706397
266.9394658386774
267.1260132821054
267.3223136900787
267.525236809324
267.7293831061295
267.9260131554451
268.1018915315518
268.2380037778792
268.3090559452826
268.2829277708874
268.1253830688728
267.7943022568333
264.9069755245945
264.9083511369842
264.9105889807664
264.9139307886359
264.9184842990344
264.9242623009449
264.9312927639321
264.9396266824234
264.9493246584964
264.9604562739152
264.9731023741339
264.9873554586513
265.0033200066679
265.0211132554436
265.0408660849886
265.062723972487
265.0868480634738
265.1134163515596
265.1426249557404
265.174689489765
265.2098465113624
265.2483550294235
265.2904980345191
265.3365839990419
265.3869482657506
265.4419542035628
265.5019939524043
265.5674884974841
265.6388866913416
265.7166626769648
265.8013109431547
265.8933378036593
265.9932474310663
266.1015192244735
266.2185754320504
266.3447403329202
266.480174629419
266.6247150419596
266.7776705135818
266.9376611957874
267.1022508035149
267.2674413528676
267.4270681263803
267.5720345713764
267.6895725890267
267.7626210466726
267.769869719492
267.6854930768307
267.4825173991719
267.1287250801807
264.9006175057329
264.9019380022778
264.904081028616
264.9072746310199
264.9116208811577
264.9171356607975
264.9238470572282
264.9318026593921
264.9410590971167
264.9516813653398
264.9637447474783
264.977335304915
264.9925501442468
265.0094980262214
265.0283000833876
265.0490905790801
265.0720177386805
265.097244645178
265.1249501788961
265.1553299823042
265.1885974224883
265.2249845105402
265.2647427195311
265.3081436175732
265.3554791973281
265.4070617317813
265.4632229171046
265.5243119625293
265.590692142086
265.6627351576875
265.7408123537866
265.8252811873523
265.9164650649458
266.0146254620734
266.1199303833046
266.2324039462915
266.3518079679814
266.4774916586056
266.6082857048518
266.7422503402609
266.8763641468641
267.0061168523467
267.1250413935442
267.2241995223997
267.2917459343857
267.312665575102
267.2690901151877
267.1402639374872
266.9048485669468
266.53636536436
264.893658209084
264.8949183089431
264.8969593330867
264.8999959784423
264.9041233885039
264.9093579620027
264.9157271141357
264.9232751179238
264.93205450843
264.9421255493089
264.9535578042861
264.9664306276121
264.9808333873557
264.996865917882
265.0146390639816
265.0342752432464
265.055909038102
265.0796878054023
265.1057722754451
265.1343371088535
265.1655713695498
265.1996788559394
265.2368782108974
265.2774027021552
265.321499524846
265.3694284200739
265.4214593368452
265.4778687515084
265.5389341251853
265.6049257813216
265.6760949453638
265.7526564833353
265.8347669205689
265.9224985173584
266.015794659635
266.1143761793858
266.2176495680729
266.3246262310428
266.4337460133223
266.5426661264632
266.6480008510923
266.7450038235519
266.8272263198882
266.8861896528174
266.9111585191494
266.8890675816696
266.8049122225067
266.6418512291639
266.3830727759149
266.0058262837074
264.8861258851264
264.8873178318408
264.8892453575484
264.8921097122387
264.8959990348509
264.9009292575003
264.9069267772102
264.9140327423341
264.9222955385263
264.9317704703515
264.9425211077707
264.9546197426598
264.9681475753715
264.9831950366338
264.9998621668176
265.0182589865448
265.0385058556332
265.0607338038893
265.0850847998209
265.1117119154917
265.1407793333874
265.1724621228348
265.2069456881997
265.2444247595976
265.2851017508851
265.3291842509911
265.3768813514463
265.4283983694615
265.4839294234561
265.5436469300844
265.6076868198
265.6761306015071
265.7489858709984
265.8261497336894
265.9073358971715
265.9920125071299
266.0793378097
266.1680414623274
266.2562759550247
266.3414374242249
266.4199535362913
266.4870450010102
266.536488209224
266.560417921269
266.5492342861473
266.4916323192632
266.3749831358869
266.1854359754032
265.9097552218877
265.5279209801188
264.8780533711039
264.8791717772344
264.8809778073945
264.8836590530479
264.8872966528881
264.891905247873
264.8975094637192
264.9041470524355
264.9118620425961
264.9207045391282
264.9307318922244
264.9420090847573
264.9546088613063
264.9686119239747
264.9841071476784
265.0011917600633
265.0199714727166
265.0405605412819
265.0630817152926
265.0876660277319
265.1144523602626
265.1435867003738
265.1752209792633
265.209511349277
265.2466157076993
265.2866902304294
265.3298845790611
265.3763352828278
265.4261568117466
265.4794293281621
265.5361839276489
265.5963873054027
265.6599100974158
265.72646730329
265.7955859301391
265.8665497886884
265.9383106411411
266.0093873363944
266.0777394068836
266.1406179655296
266.1943991940527
266.2344111140245
266.254776370636
266.2483025202166
266.2064683796625
266.119507110654
265.9767629579829
265.766703420141
265.4788679479217
265.0953796833393
264.8694747144202
264.8705141022552
264.8721902649833
264.874676663365
264.8780474596976
264.8823156603999
264.8875036910877
264.8936457438269
264.900781403825
264.9089554568627
264.9182188974177
264.9286292372616
264.9402505678525
264.9531536408742
264.9674159314911
264.9831216380912
265.0003615988558
265.019233097537
265.0398395147985
265.0622897688182
265.0866974733102
265.1131797198681
265.1418553655108
265.1728426772367
265.2062561237532
265.2422020834218
265.2807730005038
265.3220396450208
265.3660414030602
265.4127741408437
265.4621773019846
265.5141081702837
265.5682936717445
265.6243143642675
265.6815548015746
265.7391426743358
265.7958730526908
265.8501192485199
265.8997265799099
265.9418923380812
265.9730389848117
265.9886920865208
265.9833816503424
265.9505900053622
265.8827826470848
265.771513496938
265.6077622288866
265.3818320662118
265.0854089446764
264.7023503339822
264.8604263854618
264.8613822204337
264.8629215692757
264.8652033317166
264.8682947366351
264.8722069800713
264.8769599308329
264.8825839630969
264.8891140364871
264.8965894512653
264.9050546935922
264.9145596576512
264.9251596310141
264.936915262165
264.9498924789869
264.9641623172026
264.9798006351754
264.9968876831841
265.0155074797737
265.0357469344828
265.0576946406341
265.0814392386653
265.1070672325059
265.1346600938877
265.164290426508
265.1960169765015
265.2298779295735
265.2658830126201
265.3040043923205
265.3441641104974
265.3862119690476
265.4298911498765
265.4748288137887
265.5204942323522
265.5661527806643
265.6108123086548
265.6531567226909
265.6914688995473
265.7235434324748
265.7465924467486
265.757151587032
265.7509967961424
265.7230869228027
265.6675486510065
265.5777312728015
265.4463149291637
265.2656319315158
265.0274625627276
264.7251657227329
264.3440330205988
264.8509464785557
264.8518146586192
264.853210836652
264.8552788812756
264.8580790796296
264.8616207489418
264.8659209968329
264.8710062079172
264.8769065984904
264.8836558945983
264.8912920053535
264.8998571510692
264.90939776588
264.9199643559168
264.9316112827229
264.9443964328387
264.9583807471184
264.9736275743489
264.9902017992638
265.0081686816097
265.0275923296551
265.0485337015151
265.0710480195315
265.0951813820144
265.1209663971637
265.1484168041159
265.1775206970304
265.20823343098
265.2404660278335
265.2740649203059
265.3087935712826
265.3443186046916
265.3801784966369
265.4157495684921
265.4502048254866
265.4824652985518
265.5111427268724
265.5344747501994
265.5502545464981
265.555758487159
265.5476782516339
265.5220664188982
265.4743074537091
265.3991257483769
265.2906524090004
265.1425264816834
264.9481997154393
264.7006528884048
264.3945621536888
264.0164334435502
264.8410747637375
264.841851798288
264.8430993824422
264.8449459378178
264.8474448063102
264.8506034194127
264.8544360036433
264.8589648219772
264.8642152370332
264.8702153184616
264.8769963449412
264.8845928349058
264.8930423645917
264.9023853211184
264.9126645602421
264.9239249300528
264.9362126325175
264.949574384005
264.9640563261338
264.9797026196198
264.9965536453306
265.0146436896442
265.0339980026322
265.0546290156965
265.0765318277691
265.0996791014292
265.1240143886441
265.1494417643343
265.1758082507258
265.2028965656393
265.2304071826758
265.2579363198317
265.2849493478052
265.3107498369868
265.334442424718
265.3548899030457
265.3706645299379
265.3799946142334
265.3807087561573
265.3701813754072
265.3452850964686
265.3023573376398
265.2371904588968
265.1450535807024
265.0207642240282
264.8587783640681
264.6534771408139
264.3988244206082
264.090542140895
263.7161901954878
264.8308523836685
264.8315352930599
264.8326296365481
264.834248011126
264.836436799703
264.8392015693808
264.8425536122047
264.8465110010872
264.8510941869799
264.8563255520276
264.8622297471327
264.8688336244691
264.8761659714278
264.8842571639201
264.8931387081197
264.9028426324944
264.9134007018469
264.9248434082819
264.9371986978839
264.9504903476414
264.9647359223378
264.9799442011895
264.9961120290356
265.0132205700844
265.0312310065739
265.0500785297943
265.0696619925847
265.0898338797725
265.1103935319986
265.1310708603458
265.1515098003528
265.1712482416123
265.1896936649496
265.2060948677679
265.2195091748013
265.2287653293945
265.2324226646479
265.2287277914973
265.2155711557128
265.1904468661984
265.1504205077787
265.0921108072844
265.0116924818643
264.9049256917255
264.7672280785916
264.5937525128795
264.3796551111336
264.1197106958637
263.8104762644204
263.4404474487271
264.8203216918252
264.8209080257769
264.8218453060126
264.8232299883614
264.8251014920306
264.8274635620978
264.8303245475437
264.8336983092569
264.837600367742
264.8420474209988
264.8470575304051
264.8526499588889
264.8588448245597
264.8656626614572
264.8731238560752
264.8812479247419
264.890052601173
264.8995526722208
264.9097585441776
264.9206744261577
264.9322961241007
264.9446084451384
264.9575820829622
264.9711698946728
264.9853007803511
264.9998708749208
265.014740035603
265.0297216359201
265.044571193478
265.0589727839147
265.0725234094452
265.0847142047559
265.0949083581003
265.1023158133962
265.1059646617947
265.1046695291712
265.0969977850438
265.081234920751
265.0553512726717
265.0169731124163
264.9633620371363
264.8914073035295
264.7976368673233
264.6782504902453
264.5291894381307
264.3462021502642
264.1250939014759
263.8613135860027
263.5520876519437
263.1867583060324
264.8095260338496
264.8100138462354
264.8107910304577
264.8119376461691
264.8134861535813
264.815438530117
264.8178002057537
264.8205808490604
264.8237910749526
264.8274419435206
264.8315450086297
264.8361120691167
264.8411547489479
264.8466839735498
264.852709310909
264.8592381493149
264.8662746709185
264.8738185410469
264.881863381778
264.8903949009537
264.8993886887608
264.9088076208243
264.918597783837
264.9286829318951
264.9389609121685
264.9492979098247
264.9595198828893
264.9694041574974
264.9786686698776
264.9869592387581
264.9938348084419
264.9987502563605
265.00103660656
264.9998787050309
264.9942905437179
264.9830886707687
264.9648645703032
264.9379573615989
264.9004287750847
264.8500430054139
264.7842546891454
264.7002086579868
264.594756022231
264.4644883834053
264.3058036146803
264.1149602827965
263.8883098322453
263.6218657786986
263.3133927204358
262.9530102263215
264.7985095514369
264.7988973931852
264.7995122332524
264.8004175465749
264.8016388536145
264.8031764276172
264.8050328277256
264.8072135824207
264.8097244627212
264.8125709749964
264.8157582867619
264.8192909008165
264.823172169152
264.8274036885776
264.8319845538086
264.8369104574359
264.8421725891029
264.847756254335
264.8536393569217
264.8597904697388
264.8661660666417
264.8727067974444
264.8793349834153
264.8859504363115
264.8924247246685
264.8985955979744
264.9042592568007
264.9091620452777
264.9129902914708
264.915358480075
264.915795642638
264.9137297959571
264.9084703733947
264.8991887626854
264.8848972529078
264.8644269157936
264.8364052985797
264.7992352019411
264.7510762708092
264.6898315960117
264.6131419862007
264.5183907625802
264.4027226961601
264.2630777190921
264.0962519880385
263.8989421697566
263.6679612013497
263.3997991237163
263.0926538437739
262.7373668205261
264.7873169784836
264.7876038842883
264.7880548986975
264.788716790115
264.7896081744537
264.7907276908634
264.7920750948857
264.7936518546302
264.7954589920798
264.7974965789892
264.7997635517179
264.8022573177523
264.8049732112805
264.807903821988
264.8110381977643
264.8143609116646
264.8178509126049
264.8214800310168
264.825211076522
264.8289954856366
264.8327714211171
264.8364606947405
264.8399648679735
264.8431613053172
264.845897912166
264.8479874497291
264.8492003729071
264.8492567558094
264.8478168528607
264.8444702069893
264.8387232531646
264.8299853787771
264.8175534721676
264.80059512897
264.7781308701391
264.7490159324398
264.7119224693157
264.6653233201498
264.6074788497542
264.5364286959893
264.449990589519
264.345768458187
264.2211727074598
264.0734524500724
263.8997515538008
263.6971440201758
263.4628343708522
263.1937177598807
262.8883411560295
262.5382219368496
264.7759934442033
264.7761789232991
264.7764653825384
264.7768828282231
264.7774430242191
264.7781430503926
264.778979939971
264.7799512005471
264.7810532245965
264.7822807971117
264.7836268145088
264.7850818377287
264.7866335043686
264.7882658170118
264.7899582981194
264.791684884568
264.7934125202315
264.7950999438763
264.7966958448322
264.7981367197361
264.7993442137087
264.8002223411265
264.8006537803906
264.8004958502102
264.7995755475872
264.7976839234412
264.7945694356562
264.7899303154396
264.7834058308567
264.7745663462753
264.7629021548889
264.7478111117479
264.728585163653
264.7043959891233
264.6742801212517
264.6371241106399
264.5916505071838
264.5364056902155
264.4697508360233
264.3898575477123
264.2947098991992
264.182114594826
264.0497215673112
263.8950541675972
263.7155602082576
263.5086396797618
263.2718307410565
263.0023753600083
262.6991014879135
262.3541630371857
264.7645842683987
264.7646682888829
264.7647901922673
264.7649632318002
264.7651923899037
264.7654732662251
264.7658002658853
264.7661670567819
264.766565552352
264.7669854406184
264.7674138120826
264.767834636407
264.7682281099343
264.7685699401719
264.768830429987
264.7689733994619
264.7689549136863
264.7687216733462
264.7682092661249
264.7673400747665
264.7660206635334
264.7641389350418
264.7615606123924
264.7581252479469
264.7536415394513
264.7478819369417
264.7405764358092
264.7314054801683
264.7199919420532
264.7058921239822
264.6885857888766
264.6674652834918
264.6418238929165
264.6108436651957
264.5735830792757
264.5289650865824
264.475766234591
264.4126077740415
264.3379498450714
264.250089999409
264.1471674705487
264.027174487496
263.8879765107563
263.727340108977
263.5429791932094
263.3325762620952
263.0939548828819
262.8246559056945
262.5237329829822
262.1839417395083
264.7531347857188
264.7531177753015
264.7530758341548
264.7530055367191
264.7529051732685
264.752768943177
264.7525887229113
264.7523544670294
264.752053758915
264.7516713591869
264.7511887538151
264.7505836080428
264.7498291046842
264.7488931391603
264.747737377893
264.7463161586504
264.7445752060163
264.7424500387419
264.7398641827367
264.7367270853576
264.7329315958525
264.7283511216349
264.7228362810648
264.71621104704
264.7082683125638
264.6987648082372
264.6874153286556
264.6738862036415
264.6577879974367
264.6386674272555
264.6159985325243
264.5891731851337
264.5574911008981
264.5201496016448
264.4762334892471
264.4247055228378
264.3643981326601
264.2940071515566
264.2120884873253
264.1170587663323
264.007201082035
263.8806768235959
263.7355451167455
263.5697883028402
263.381353661405
263.1681692826298
262.9283038323835
262.6595573547982
262.3611641370082
262.0264498657871
264.7416900385635
264.7415727556167
264.7413682476871
264.7410565560851
264.740629387638
264.7400796260902
264.7393967305508
264.7385670895259
264.7375741415531
264.7363979493318
264.7350146699529
264.7333959761881
264.7315083731934
264.7293123755326
264.7267615460426
264.7238013732166
264.7203679689708
264.7163865104636
264.7117694518173
264.7064144619783
264.7002020025118
264.6929925508668
264.6846234040875
264.6749050102742
264.6636167924544
264.6505024085949
264.6352644185488
264.617558323741
264.5969859747727
264.5730883657911
264.5453378695582
264.5131300192141
264.475775006913
264.4324891474105
264.382386647765
264.3244721298658
264.2576344648465
264.1806425899392
264.0921440809425
263.9906673204616
263.8746281691294
263.7423418638392
263.5920414045747
263.4219006735592
263.230071992985
263.0146976112975
262.7740574609684
262.506177685369
262.2104363604006
261.8806997987973
264.7302948066184
264.7300783994658
264.7297132307574
264.7291630255199
264.7284130372507
264.7274549216347
264.7262758372317
264.7248587597315
264.7231831719527
264.7212246684846
264.718954356618
264.7163382470804
264.7133365547627
264.7099028657936
264.7059831662961
264.7015147140146
264.6964247336925
264.6906288934302
264.6840295463781
264.6765137128741
264.6679507522763
264.6581896954705
264.6470562056602
264.6343491210488
264.6198365504823
264.6032514866259
264.584286916455
264.562590417106
264.5377582458766
264.5093289601614
264.476776636822
264.4395038061583
264.396834272303
264.3480060588599
264.2921647956817
264.228357947476
264.1555303725962
264.0725217835728
263.9780667534028
263.8707979494728
263.7492533190709
263.6118877552008
263.4570902924179
263.2832049789486
263.0885646321688
262.8714988076899
262.630470186097
262.3637032122051
262.0706895678098
261.7458083006695
264.7189934255179
264.7186794493501
264.7181561619564
264.7173712461131
264.7163036469093
264.7149438794721
264.7132769239677
264.7112825060782
264.7089363550145
264.7062098399352
264.7030693047523
264.699475435064
264.6953825499281
264.6907377648247
264.6854800194175
264.6795389557864
264.6728336274042
264.6652710115991
264.6567443003947
264.6471309474014
264.6362904385621
264.6240617547622
264.6102605016315
264.5946756743276
264.5770660337355
264.5571560737251
264.534631569335
264.5091347086702
264.480258829655
264.4475428084879
264.4104651785006
264.3684380983863
264.3208013377236
264.2668165044686
264.205661802431
264.1364276742715
264.058113753149
263.9696276072417
263.8697858111481
263.757317895301
263.6308737498123
263.4890348608907
263.330330262744
263.1532553185359
262.9563020309877
262.7379642487464
262.4968632592235
262.2313982937765
261.9411498946932
261.6209830727224
264.7078295776664
264.7074199766527
264.7067417255063
264.7057267910464
264.7043479654299
264.7025947080699
264.7004499452716
264.6978903210218
264.6948880210876
264.6914104414377
264.6874194580744
264.68287077485
264.6777132127774
264.6718878745746
264.6653271796373
264.6579537588551
264.649679190233
264.6404025540857
264.6300087844883
264.6183667956782
264.6053273600193
264.5907207115816
264.5743538545213
264.5560075549424
264.5354329997973
264.5123481128958
264.4864335274422
264.45732822809
264.4246248930833
264.3878649905167
264.346533711865
264.3000548612961
264.2477858611119
264.1890130811229
264.122947751358
264.0487227708209
263.9653907764842
263.8719238806912
263.7672155180649
263.6500848457734
263.5192841553374
263.3735095591506
263.211415702194
263.0316326287954
262.8327929881652
262.6135351247866
262.3726184081599
262.1085968170486
261.8211194716345
261.5055113899847
264.6968461275365
264.6963432158056
264.695513738423
264.6942743216881
264.6925917674137
264.6904545600974
264.6878436984413
264.6847329180681
264.6810910785395
264.6768818619314
264.6720629769288
264.6665854909231
264.6603931227295
264.6534214147552
264.6455967825974
264.6368354347098
264.6270421444721
264.6161088560993
264.6039131049089
264.5903162330891
264.5751613825223
264.5582712453663
264.5394455560767
264.5184583111899
264.4950547075844
264.468947797082
264.4398148646733
264.4072935506979
264.3709777539914
264.330413374232
264.2850939776845
264.2344565013112
264.1778771456578
264.1146676462184
264.0440721546296
263.9652650027507
263.8773496613886
263.7793592362972
263.6702588646643
263.5489503684364
263.4142795283166
263.2650461548234
263.1000176005418
262.9179438963981
262.7175821682551
262.4976981604148
262.2571717992905
261.9946946129152
261.7099677035297
261.3987507956781
264.6860849655968
264.6854914104293
264.6845149985463
264.6830574370105
264.6810797038743
264.6785693847565
264.6755056787999
264.6718595917327
264.6675968808341
264.6626777789401
264.6570561300322
264.6506787084102
264.6434845203982
264.6354039902108
264.6263580309593
264.6162569963201
264.6049994965787
264.5924710623387
264.5785426398844
264.563068902617
264.5458863639644
264.526811277915
264.5056373157057
264.482133010781
264.4560389689106
264.4270648474313
264.3948861169106
264.3591406307777
264.3194250439267
264.2752911403285
264.226242152511
264.1717291822397
264.1111478615313
264.043835425379
263.9690684009018
263.8860611499188
263.7939655306208
263.6918719649633
263.5788122100951
263.4537641191737
263.3156586803623
263.1633894457648
262.9958249077812
262.8118220857282
262.6102484427523
262.3899823030008
262.1500091214833
261.8891431022876
261.6071237858202
261.3001208006777
264.6755868619044
264.6749056676624
264.6737871379844
264.6721185226777
264.6698551421537
264.6669837534265
264.6634818862987
264.6593180007151
264.6544549818387
264.648849881144
264.6424529790822
264.6352070944139
264.6270469007212
264.6178981319382
264.60767668089
264.5962875890669
264.5836239124789
264.5695654486134
264.5539773114421
264.5367083422605
264.5175893452894
264.4964311385681
264.4730224131766
264.4471273976231
264.4184833292617
264.3867977414752
264.3517455843101
264.3129662076042
264.2700602496994
264.2225864917368
264.1700587573717
264.1119429603156
264.0476544269549
263.9765556475805
263.8979546361917
263.8111041035859
263.7152016693117
263.6093913516246
263.4927665800025
263.3643749582865
263.2232250077553
263.068294954569
262.8985440472477
262.7129247664598
262.5104025050113
262.2899552619104
262.050661075151
261.7914438733631
261.5120706378364
261.2090965973734
264.6653913293856
264.6646258267134
264.6633704997813
264.6614986395346
264.6589600718192
264.6557407922144
264.6518167982554
264.6471541976541
264.6417132408009
264.6354480667296
264.6283056880617
264.620225295062
264.611137593642
264.6009640365682
264.5896159550566
264.5769935917272
264.5629850206695
264.5474649413607
264.5302933360985
264.5113139818662
264.4903528088493
264.4672160997871
264.4416885270825
264.4135310284083
264.3824785265866
264.3482375061085
264.3104834670357
264.2688582874342
264.222967538077