/*--------------------------------*- C++ -*----------------------------------*\
| =========                 |                                                 |
| \\      /  F ield         | OpenFOAM: The Open Source CFD Toolbox           |
|  \\    /   O peration     | Version:  v1912                                 |
|   \\  /    A nd           | Website:  www.openfoam.com                      |
|    \\/     M anipulation  |                                                 |
\*---------------------------------------------------------------------------*/
FoamFile
{
    version     2.0;
    format      ascii;
    class       volVectorField;
    location    "1000";
    object      U;
}
// * * * * * * * * * * * * * * * * * * * * * * * * * * * * * * * * * * * * * //

dimensions      [0 1 -1 0 0 0 0];


internalField   nonuniform List<vector> 
7500
(
(215.9891687759237 0.000818311318031283 5.582424282067005e-22)
(215.9829338194696 0.002465105704328095 -2.578909250153301e-21)
(215.9705105815285 0.004214397340244913 8.111617547108776e-21)
(215.9518249772911 0.006025564241404415 -1.693084592720794e-20)
(215.9266045208146 0.007882525223756731 -3.108512057555326e-20)
(215.8946793492287 0.009800808555940997 -3.792002027110772e-20)
(215.8558135768167 0.01179616775126857 -3.574536897434344e-20)
(215.8096967568922 0.01388554960254619 -5.541555026457698e-20)
(215.7559594067514 0.01608745124564422 2.951097165300906e-20)
(215.6941737802929 0.0184210268518487 -3.541603857943342e-19)
(215.6238453222722 0.02090641330843877 1.382318587740211e-18)
(215.5444065387525 0.02356557259808165 -5.55095826900002e-18)
(215.4552112762665 0.02642264518496785 2.444150262777623e-17)
(215.3555271902987 0.02950416942955734 -1.018837492622006e-16)
(215.2445274505087 0.03283947372701947 4.341882281492678e-16)
(215.1212810780258 0.03646115366060653 -1.836161610098866e-15)
(214.9847416311025 0.04040562504936238 1.965496558047512e-14)
(214.8337340783452 0.04471377651114057 4.630882862215934e-15)
(214.6669395221038 0.04943174501539681 1.103089496489235e-15)
(214.4828773655816 0.05461184385215444 1.909056771637787e-16)
(214.2798844417149 0.06031368074085371 1.660036467134418e-18)
(214.0560904986289 0.06660551435274301 -6.419509965353906e-18)
(213.8093892836687 0.07356591171982543 -6.430347269598418e-18)
(213.5374042738119 0.08128578809423032 -6.430346988952739e-18)
(213.2374478457136 0.08987093672521095 -6.430346712783238e-18)
(212.9064723435229 0.09944519155650668 -6.430346458091978e-18)
(212.5410110575352 0.1101544151119994 -6.430346224936881e-18)
(212.1371065288818 0.1221715729484272 -6.430346019875027e-18)
(211.6902227833296 0.1357032542218748 -6.430345865649447e-18)
(211.1951369807205 0.1509981392826759 -6.430345723195461e-18)
(210.6458044116937 0.1683581215166182 -6.430345608185067e-18)
(210.0351885783295 0.1881530981256549 -6.430345516855903e-18)
(209.3550449403766 0.2108409068983745 -6.430345448803474e-18)
(208.595642329112 0.2369946214658568 -6.430345400810357e-18)
(207.7453989203495 0.2673406730203449 -6.430345369998979e-18)
(206.7903990654646 0.3028131357585933 -6.430345352150426e-18)
(205.7137380266389 0.3446344591651977 -6.430345343440417e-18)
(204.4946161483206 0.3944291165591439 -6.430345339349016e-18)
(203.1070778883755 0.4544038660528029 -6.430345334871638e-18)
(201.5181811441383 0.5276333983625349 -6.430345324941617e-18)
(199.6852150510319 0.6185226371414838 -6.430345304502744e-18)
(197.5515533186848 0.7336207104730692 -6.430345257739152e-18)
(195.0392524656482 0.8830059423370912 -6.430345233446357e-18)
(192.0389803818567 1.083192207290204 -6.430345200088085e-18)
(188.3858910649687 1.364236960466914 -6.430345107892898e-18)
(183.8280519099355 1.786478016717725 -6.430344982300973e-18)
(177.8880816775878 2.503878924095719 -6.430344805790978e-18)
(169.8745083407538 3.793163957232232 -6.430344570669828e-18)
(157.9631644329564 7.338766825115636 -6.430344277316523e-18)
(140.0520907144282 9.406422748134268 -6.430343908150599e-18)
(215.9932270176497 0.002688180274838937 -2.455418485511098e-17)
(215.9868225858217 0.007703645806633574 1.227727796982456e-16)
(215.9746699320328 0.01295001731982203 -5.156701984209739e-16)
(215.9561820241895 0.01840439155549707 2.185615755707857e-15)
(215.9311465695423 0.02400634121475992 5.16232693878218e-16)
(215.8994436379344 0.02979157648022464 1.193821858297829e-16)
(215.8608233781327 0.03581003020653752 3.730143819815432e-17)
(215.814964627208 0.04211025716984122 -3.125950600283537e-17)
(215.7615224632867 0.04874773467548027 1.609201228639228e-16)
(215.7000812109309 0.05578171301776243 -6.764814358937454e-16)
(215.6301488633175 0.06327433489767254 -2.028665896545818e-15)
(215.5511624938174 0.0712925245014929 -2.352770117077073e-15)
(215.4624814413415 0.07990927188247496 -2.408100431452305e-15)
(215.3633796227046 0.08920474092721918 -2.510286258006116e-15)
(215.2530375429718 0.09926752728034577 -2.156237564533603e-15)
(215.1305328024497 0.1101960939099328 -3.673629703359139e-15)
(214.9948289892214 0.1221004460070449 1.498701310157253e-14)
(214.8447628188745 0.1351041069384683 -4.900848326177718e-15)
(214.6790291861018 0.1493464643761805 -4.90042745135232e-15)
(214.4961637399652 0.1649855764218047 -4.897661550629951e-15)
(214.2945225226633 0.1822015517252226 -4.611169633932615e-15)
(214.0722580953885 0.201200649347033 -6.033699825915397e-15)
(213.827291432094 0.2222202868767019 -7.028061346802064e-15)
(213.5572786812414 0.2455352027319896 -7.352004649471889e-15)
(213.2595716598931 0.2714650964728914 -7.345792198669976e-15)
(212.9311706360305 0.3003841777718611 -7.338910192222578e-15)
(212.5686675479221 0.3327332026671049 -7.331276029510134e-15)
(212.1681772665062 0.3690347831794545 -7.328202417882592e-15)
(211.7252537752039 0.4099130508539117 -7.314654873265353e-15)
(211.2347871447317 0.4561191784571425 -7.304179480799076e-15)
(210.6908758066801 0.5085648818989796 -7.292499446650417e-15)
(210.0866667126251 0.5683669423252162 -7.279431670410162e-15)
(209.4141532705672 0.636907162237823 -7.264774073195646e-15)
(208.6639171154986 0.7159143317654217 -7.248284496175027e-15)
(207.8247943849974 0.8075781843341465 -7.229668385473048e-15)
(206.8834402916159 0.9147114050101155 -7.208564593836132e-15)
(205.8237425831155 1.040991314810488 -7.184525965816732e-15)
(204.626021468636 1.191294208850738 -7.156992600409796e-15)
(203.2659568079087 1.37222996193463 -7.12524629305977e-15)
(201.7130660969272 1.592975529808711 -7.088389096347438e-15)
(199.9285057915923 1.866616540524463 -7.044835100189394e-15)
(197.861857621339 2.21250084514155 -7.025123885522871e-15)
(195.4458379487427 2.660112274892211 -6.93714839483943e-15)
(192.5899723246965 3.257193085023341 -6.860513954771252e-15)
(189.1683179203307 4.086955617720559 -6.765560052295655e-15)
(185.0215853715463 5.296581216063202 -6.70860542687079e-15)
(179.9417295390874 7.204636341620728 -6.576989654620887e-15)
(174.0624521698505 10.30005041538105 -6.373916561563783e-15)
(167.3186977271347 16.87607525651215 -5.948121701014088e-15)
(161.9437556339703 22.68035423542477 -5.318736080811616e-15)
(216.0002787764838 0.004438786133114389 -2.456081686703877e-17)
(215.9934965947708 0.01289915119757942 1.228039979738188e-16)
(215.9814079079177 0.02150448716989231 -5.157761277324864e-16)
(215.9630168051872 0.03042483987125063 2.185903240759395e-15)
(215.9381283058625 0.03964636179876541 5.155993611816469e-16)
(215.9066763674995 0.04920760997951074 1.240638316578357e-16)
(215.8684001123337 0.05917731416375035 2.005062680813958e-17)
(215.822977522838 0.06962873963194136 4.463099719115206e-17)
(215.7700457945036 0.08064304147023034 -1.577952145054464e-16)
(215.7091851476469 0.09231240480146044 6.769943798452976e-16)
(215.639911406817 0.1047388434816231 2.02740337615614e-15)
(215.561669972053 0.1180332455063635 2.349544991373894e-15)
(215.4738293078431 0.1323164041060528 2.402692110509614e-15)
(215.375673906245 0.1477208853857139 2.502114812725326e-15)
(215.2663964659028 0.1643930854633133 2.146122490921496e-15)
(215.1450886765459 0.1824955843376337 3.656906592209009e-15)
(215.0107304873288 0.2022098961852444 -5.156380056368257e-15)
(214.8621776935202 0.2237397025321856 4.897372430274392e-15)
(214.6981475321975 0.2473146847139699 4.889203634220164e-15)
(214.5172019292439 0.2731951013358987 4.884149025619051e-15)
(214.3177279734003 0.3016772935429449 1.316514537069309e-16)
(214.0979150892792 0.3331003518719936 2.581923930371598e-14)
(213.8557282547041 0.367854246248942 -4.397562643056542e-16)
(213.5888764492937 0.4063898113523908 1.715307478876151e-14)
(213.2947753171408 0.449231102169527 9.604078853054942e-15)
(212.9705027630326 0.4969908019198179 7.551774497195021e-15)
(212.6127458597099 0.5503895952541777 7.258377529930713e-15)
(212.2177369962932 0.6102807412678113 2.225237593424077e-15)
(211.7811766087306 0.6776815345051745 2.682341787926937e-14)
(211.2981390520181 0.7538139896745798 1.166415138659213e-14)
(210.7629571333902 0.8401580224624748 7.83422545331676e-15)
(210.1690794320895 0.9385217707659458 6.976332537975222e-15)
(209.5088926800443 1.051135732728792 6.763066088262623e-15)
(208.7734989805547 1.180780487988121 6.661449615015264e-15)
(207.9524348704503 1.330961865916505 6.552635306862312e-15)
(207.0333147731261 1.506160135266678 6.430374092260749e-15)
(206.0013572058801 1.712204387183447 6.296130688084213e-15)
(204.8387780479219 1.956767394156239 6.127735777931376e-15)
(203.5240470048345 2.250149760373832 6.003758519213908e-15)
(202.0308886609805 2.606484242386867 5.56907754707582e-15)
(200.3269995837136 3.045659494946632 6.319911323194631e-15)
(198.372180869241 3.596740381891957 1.807274692352193e-15)
(196.1156854652963 4.30314401303411 1.984159164103161e-14)
(193.4951671532187 5.231756887814404 2.778880432295395e-14)
(190.4413094211583 6.491466203789779 8.380035031589278e-15)
(186.899907225133 8.256695259219715 3.283569027160362e-15)
(182.838146943322 10.83434313546364 1.481255066292583e-15)
(178.535247026988 14.4308681821006 3.334975158006759e-16)
(174.2538360986037 20.68141746317492 -8.982036534030901e-16)
(171.5652182392282 26.35342896624491 -2.41285616471519e-15)
(216.0109826171108 0.006154266672804162 -5.801934306802532e-18)
(216.0041973100379 0.01818471573181941 2.900783455026926e-17)
(215.9924403083917 0.03029315182515401 -1.218082973071976e-16)
(215.9744235884021 0.04274029852155669 5.160789996865816e-16)
(215.9498742199343 0.05558139529763018 -2.18516899355823e-15)
(215.9188183716566 0.06888228874840475 -5.148808970209751e-16)
(215.8810316158693 0.08274520565900899 -1.205183642464027e-16)
(215.8362013176644 0.09727871026686936 -2.743217488247983e-17)
(215.7839799555724 0.1126013818763046 -5.248574823032852e-18)
(215.723958269385 0.1288429976672302 -1.331119823566816e-18)
(215.6556590481035 0.1461436663268663 7.388081521057618e-18)
(215.5785367750113 0.1646556934855685 -1.61036504122863e-17)
(215.491972054772 0.1845458010414945 9.638425293378249e-17)
(215.3952642392689 0.2059973854546793 -3.660638269114096e-16)
(215.287623740676 0.2292131580843323 1.610134900064189e-15)
(215.1681632074176 0.2544183052161421 3.062526864632717e-15)
(215.035887274027 0.281864218341652 -9.811352057610581e-15)
(214.8896807649538 0.3118328976733329 -2.294957222806228e-15)
(214.7282950797809 0.3446421804780113 -5.184337200602699e-16)
(214.550332433442 0.3806519854754002 -6.813590834725503e-17)
(214.3542275770409 0.4202718161057287 6.609572274087788e-16)
(214.1382265405805 0.4639698339527859 2.489673264289489e-14)
(213.9003618356495 0.5122839032877252 -4.902487636407636e-15)
(213.6384234298415 0.565835126823636 1.236569415175435e-14)
(213.3499246449834 0.6253445529011725 6.811562631732446e-15)
(213.0320619293416 0.6916539515290292 5.26331365747317e-15)
(212.6816671981094 0.7657518542444318 5.696592799081043e-15)
(212.295151110437 0.8488064645429079 4.315940838235424e-16)
(211.8684352334731 0.9422076218371297 2.758219761932467e-14)
(211.396870505632 1.047620816532295 1.426781923743053e-14)
(210.8751387117907 1.167057420343735 1.092368498113503e-14)
(210.2971327663788 1.302966981293577 1.017435903287121e-14)
(209.6558103656191 1.458359894233399 1.000331643485225e-14)
(208.943013952367 1.636972432739442 1.157998172584963e-14)
(208.1492477368205 1.843490780957211 1.523840402105272e-14)
(207.2634038141992 2.083858485707069 1.52112237699432e-14)
(206.272468677991 2.365722305538266 1.517905237258037e-14)
(205.1611896323899 2.69907085967178 1.51405554216402e-14)
(203.9115504047345 3.097125188142056 1.509492050565164e-14)
(202.502344170689 3.57772372767363 1.503588233496152e-14)
(200.908759052669 4.165457954335238 1.499221337568779e-14)
(199.1021925165628 4.895431937441133 1.00091180466214e-14)
(197.0515797895197 5.818512251243422 3.49974460800226e-14)
(194.7273882402357 7.00901429327865 3.682139587955542e-14)
(192.1117856282745 8.57693079848169 2.152257642720993e-14)
(189.2297591649634 10.67871451886672 1.999057863066829e-14)
(186.1738331419607 13.57334896217148 1.915867102693152e-14)
(183.280555130468 17.3255863289727 1.830449502020376e-14)
(180.9590950995266 22.90648999727064 1.722235837022474e-14)
(180.17388797246 28.59587115711774 1.504799436301796e-14)
(216.0248369738535 0.007799912731023833 -5.79661470470767e-18)
(216.0178995096617 0.02325294436540353 2.89836267524861e-17)
(216.0062441110656 0.03875558355299182 -1.217388511037335e-16)
(215.9885464924166 0.0546122167357945 5.159893397153538e-16)
(215.9644264240028 0.07097454675025326 -2.185992379940524e-15)
(215.933923021664 0.08794109768706111 -5.163318156054424e-16)
(215.8968302333654 0.1056351490442865 -1.222121964438499e-16)
(215.8528316017233 0.1241928575988264 -2.910283499193725e-17)
(215.8015819063573 0.1437610195087991 -7.457767519023238e-18)
(215.7426813659368 0.1645012770142375 -8.329359197897119e-19)
(215.6756657075064 0.1865907948536473 -6.150477727881691e-18)
(215.6000046190433 0.2102230079104338 2.022640742665149e-17)
(215.5150960882106 0.2356096231003153 -9.278903284256613e-17)
(215.4202595553126 0.2629834177183069 3.841555321381035e-16)
(215.3147287777311 0.2926015788433342 -1.643122563724074e-15)
(215.1976435700479 0.324749638604565 -2.852316483949673e-15)
(215.0680402236139 0.3597461166621684 -7.08532501175416e-18)
(214.9248405310217 0.3979480036178371 7.73824448943313e-18)
(214.7668391801028 0.4397572645075344 -7.711046735971428e-17)
(214.5926892393355 0.485628592731165 2.637551188698364e-16)
(214.4008854248709 0.5360787071554275 -1.191567924568551e-15)
(214.1897447755138 0.5916975665197457 -4.870750140403486e-15)
(213.9573842862209 0.6531619813890162 -4.871253779083541e-15)
(213.7016949628027 0.7212522437104264 -4.833630884702276e-15)
(213.4203116546823 0.7968725804999622 -4.806788929625967e-15)
(213.1105778971021 0.8810764892368339 -4.778118926676217e-15)
(212.7695048486376 0.9750983538027551 -4.744398948579436e-15)
(212.3937232458724 1.080393208463963 -4.228978966424772e-15)
(211.979427121239 1.19868716855974 -6.73375118335925e-15)
(211.5223078601066 1.332041960783291 -8.793857112139594e-15)
(211.0174770423677 1.482938291361822 -9.33865645446204e-15)
(210.4593764935998 1.65438467121479 -9.211574433688592e-15)
(209.8416741336478 1.850061102966095 -8.935925714536173e-15)
(209.1571446640649 2.074511170590562 -1.021930175564996e-14)
(208.3975341718613 2.333402760009784 -1.365441004149272e-14)
(207.5534059588395 2.633878645716841 -1.333812407590569e-14)
(206.6139742252768 2.985021410544625 -1.297133902163746e-14)
(205.5669677261998 3.398540166732464 -1.255695699505948e-14)
(204.3986007961335 3.889744666548008 -1.20877386530551e-14)
(203.0934032817173 4.479059908904426 -1.155470087314484e-14)
(201.6343114476843 5.193848994886848 -1.093689193060731e-14)
(200.0047563428853 6.071402731821573 -1.047065101264426e-14)
(198.1927032793597 7.163636062667609 -9.078502013945556e-15)
(196.1958603561979 8.542053284227409 -7.145939680239794e-15)
(194.0334342813719 10.30429809054735 -8.429711987515517e-15)
(191.7734037465043 12.57020196253266 -9.627027382061295e-15)
(189.5479805460675 15.52527619539025 -7.769159810887963e-15)
(187.6505333422782 19.15812587349664 -5.444197069676764e-15)
(186.4449916285815 23.95924756262302 -2.828253312574841e-15)
(186.5819395458043 29.18588691096936 3.053578423904854e-16)
(216.0421131587418 0.009428920604845719 -4.297730340195398e-21)
(216.0352773181617 0.02825424010977752 2.0516501733989e-20)
(216.023932015011 0.04717729597543219 -7.279120666434659e-20)
(216.0067504506035 0.06646612845708802 2.233361301327253e-19)
(215.9832514310935 0.08632780085428941 -4.460463145182143e-19)
(215.9534615907542 0.1069034841853128 -8.206018585466805e-19)
(215.9172175479535 0.1283479485537668 -9.707257984049089e-19)
(215.8742266157529 0.150833370879868 -1.022595167574097e-18)
(215.8241607645428 0.1745425734270765 -1.042457647958449e-18)
(215.7666378099271 0.1996725767483695 -1.037554959286147e-18)
(215.7012101185626 0.2264372875851998 -1.077223828334885e-18)
(215.6273653315778 0.2550695926717154 -9.485786371494307e-19)
(215.5445224565523 0.2858242569089012 -1.369276689921495e-18)
(215.452025545089 0.3189813459267907 -2.535402585390057e-19)
(215.349137059613 0.3548501643753969 -1.943989229882009e-18)
(215.2350303302241 0.3937739010626106 -9.325743300987564e-18)
(215.1087808146235 0.4361351093080531 -1.131666689242177e-17)
(214.9693561199099 0.4823621661584919 -1.061431541991857e-17)
(214.8156046193147 0.532936916700293 -1.056512394360024e-17)
(214.6462424463634 0.5884037680462942 -9.725014015251043e-18)
(214.459838630911 0.6493805656357641 -9.368365459182179e-18)
(214.2547981013761 0.7165716743954066 -2.883807099602353e-17)
(214.0293422308156 0.7907838041297288 -4.51257769521365e-17)
(213.7814865556579 0.8729452709472061 -6.319766981665057e-17)
(213.5090152428937 0.964129587742431 -8.304360440284493e-17)
(213.2094518267749 1.065584544273985 -1.044153471773041e-16)
(212.8800256857495 1.178768295590423 -1.394764870559861e-16)
(212.517633695476 1.30539446079649 8.023764820596483e-17)
(212.118796494392 1.447488891452849 -3.464045947507426e-15)
(211.6796088778024 1.607461666573536 1.774742051537687e-14)
(211.1956840698876 1.788199117890642 3.720939521351914e-15)
(210.6620921948501 1.993182405871477 3.676310122220759e-16)
(210.0732944251577 2.226641694754633 -6.829946829350459e-16)
(209.4230767958648 2.493758403165955 -9.465046265998863e-16)
(208.7044917890905 2.800935081774361 -1.126792411341502e-15)
(207.9098236747425 3.156156986049022 -1.311812142978762e-15)
(207.0306004557911 3.569469321074395 -1.515068605341027e-15)
(206.0576764041228 4.053647790917414 -1.739221967255099e-15)
(204.981387253956 4.625174923734866 -1.986287531438534e-15)
(203.791901671943 5.305634528211415 -2.258255979944615e-15)
(202.4808189952394 6.123226020875065 -2.556124871775026e-15)
(201.0435110492577 7.11467910020786 -2.883035277064205e-15)
(199.4823909391982 8.32845098617449 -3.259331023940874e-15)
(197.814801363736 9.827312896634517 -3.596499423197833e-15)
(196.0831896374933 11.69114705469128 -3.998106197245776e-15)
(194.3749331899729 14.00507566250633 -4.482294841876152e-15)
(192.8305672552977 16.89232118988896 -5.016879785009536e-15)
(191.6863094857591 20.32842473365556 -5.489405173593793e-15)
(191.2196972588456 24.49155997905372 -5.540061270696024e-15)
(191.8610389623744 29.11623456449467 -5.321209948765185e-15)
(216.0625419236051 0.01101243530232381 1.217923013385399e-21)
(216.0557628093328 0.03306517595907707 -5.815635513317253e-21)
(216.0446365909718 0.05527469515772569 2.064393142472445e-20)
(216.0279057553265 0.07787631633574212 -6.33676661631432e-20)
(216.0050586408182 0.1011188668509392 1.266664498212773e-19)
(215.9760921055554 0.1251930659711718 2.325933000912514e-19)
(215.9408596943744 0.1502843489027562 2.744474473893773e-19)
(215.8990808709979 0.1765934222064405 2.882328936310535e-19)
(215.850435574792 0.2043331860481528 2.924010940071361e-19)
(215.794555871009 0.2337322495899773 2.905735257640237e-19)
(215.7310126309794 0.2650389347094157 2.966290466131429e-19)
(215.6593148429669 0.2985237505259277 2.702379795725101e-19)
(215.5789062938728 0.3344824550853577 3.48524773909083e-19)
(215.4891598565378 0.3732399421532909 1.309982019594302e-19)
(215.389371466879 0.4151547604629917 4.586028745556982e-19)
(215.2787533520647 0.4606243867799356 1.852645229084475e-18)
(215.156426215971 0.5100914230312228 2.1673712153091e-18)
(215.0214103785382 0.5640508896000659 2.175383115886025e-18)
(214.8726157620187 0.6230588380875075 2.289907266554116e-18)
(214.7088305684923 0.6877425692894914 1.882117603065441e-18)
(214.5287084934368 0.7588128151649898 2.676532858776419e-18)
(214.3307543070482 0.8370783380726257 2.823854920403607e-18)
(214.1133076218119 0.9234635225849503 2.90430732717445e-18)
(213.8745246617275 1.019029693026157 2.537622924380869e-18)
(213.6123578586763 1.125001096433978 -3.140018171348019e-18)
(213.3245331334819 1.242796762509701 2.495051636201489e-17)
(213.0085247888771 1.374069812493522 -9.353803198115197e-17)
(212.6615280709309 1.520756269573903 4.127789435007786e-16)
(212.2804296776868 1.685136067389408 -1.733091835026442e-15)
(211.8617768681381 1.869909813178243 3.948883455396483e-14)
(211.4017464112879 2.07829602962904 -7.601875786429154e-17)
(210.8961155820867 2.314155099092364 -5.702590332392326e-17)
(210.3402387529678 2.582148338353471 -5.062193400021264e-17)
(209.7290359679614 2.887942646025965 -5.21934415522079e-17)
(209.0570045252669 3.238475989776096 -5.641930551145743e-17)
(208.3182801363504 3.642298480707897 -6.234896736740629e-17)
(207.5067678876409 4.110031044010413 -7.009980292462434e-17)
(206.616307642153 4.654998558004029 -8.012518128987562e-17)
(205.6410234139837 5.294074810082177 -9.307049046741993e-17)
(204.57660395753 6.048608777148587 -1.098256910062274e-16)
(203.4222207716863 6.945729376327984 -1.315265791910562e-16)
(202.1822901600177 8.019482333247003 -1.601831648926135e-16)
(200.8705374517776 9.312665841593178 -2.183886906152438e-16)
(199.5167723834449 10.87708638453099 -3.300478221163462e-16)
(198.1749166873135 12.77396944644621 -4.864745476308728e-16)
(196.9355886114272 15.06033018632791 -6.541651811994936e-16)
(195.9301182657001 17.80960428987443 -8.962148702414866e-16)
(195.3474905151451 21.00709063265693 -1.376014636621119e-15)
(195.3983106694037 24.67313894873511 -1.88383873127786e-15)
(196.3629127803485 28.72541257818582 -2.732309248321037e-15)
(216.0861484115175 0.01255918543352192 1.404654113646699e-24)
(216.0795541565915 0.03774536842984701 -6.446486352233956e-24)
(216.0687843970098 0.06316204147383589 1.949438461824261e-23)
(216.052644682673 0.08901998548517315 -4.300732824284186e-23)
(216.0306115129947 0.1155810597727478 2.054671326694035e-23)
(216.0026435802646 0.1430730727276061 2.549212407548516e-22)
(215.9686041788266 0.1717130821243651 6.34203294637683e-22)
(215.9282351664639 0.2017322138673264 1.127443888206229e-21)
(215.881234590198 0.2333757506911758 1.726891198504285e-21)
(215.8272548198511 0.2669052810116566 2.400087065422916e-21)
(215.7658898538524 0.3026032691466781 3.236689857382589e-21)
(215.6966741803009 0.3407765675193948 3.97622846499206e-21)
(215.6190805629048 0.3817600992846045 5.304167463445127e-21)
(215.5325152341466 0.4259212695574641 5.959332009039049e-21)
(215.4363125969948 0.4736650295475703 6.353653624500079e-21)
(215.3297293591099 0.5254397312934359 1.427273845934042e-20)
(215.2119378004126 0.5817439686117362 2.607803773778e-20)
(215.0820181763046 0.6431345917423461 4.358913936032264e-20)
(214.9389502185406 0.7102361319566632 4.61750140893884e-20)
(214.7816036506296 0.7837519374090693 1.223375674432939e-19)
(214.608727644133 0.8644773942339611 -1.14922070082946e-19)
(214.4189391515083 0.9533156999115205 1.001238325308467e-18)
(214.2107100657589 1.051296775662387 -3.541948959726288e-18)
(213.9823531901454 1.159600057478789 9.831312329715538e-15)
(213.7320070594893 1.27958210267979 -5.579185981958166e-17)
(213.4576197515514 1.412810203205889 -4.420814606801036e-17)
(213.1569319860787 1.561103528826288 -1.035796331157402e-16)
(212.8274600626891 1.72658375641395 1.44668462603876e-16)
(212.4664795978856 1.911737708337379 -8.962928782249579e-16)
(212.0710116746179 2.119495272161634 1.884503831279793e-14)
(211.6378139765883 2.353326890627405 4.577690967460054e-15)
(211.1633810566634 2.617366141292905 1.196863307783582e-15)
(210.6439600875757 2.916564915400901 3.957117223772861e-16)
(210.0755936615463 3.256889256614145 2.060681777556845e-16)
(209.4542055362919 3.645568795025826 1.617674194760922e-16)
(208.775750011824 4.091411384542119 1.524995696367294e-16)
(208.0363861697222 4.605258750030349 1.522997004379399e-16)
(207.2327591892308 5.200508706048272 1.552301457039115e-16)
(206.3629209173792 5.893683522213595 1.601435637749831e-16)
(205.4276891269551 6.705051112137329 1.67079809808666e-16)
(204.4317063980741 7.659544675038319 1.763097522626695e-16)
(203.3862270791068 8.787384947083783 1.886057591677302e-16)
(202.3125973683344 10.12463715239924 2.02946834552972e-16)
(201.2474564516829 11.71216029950906 2.218265600271839e-16)
(200.2483195218332 13.59459994838856 2.176084337838512e-16)
(199.4006870665982 15.80867881891313 2.026751544836535e-16)
(198.8195000032623 18.39197907325034 1.817619837200061e-16)
(198.6552546647913 21.33660791691464 1.322347783317589e-16)
(199.0717076393908 24.60291777317487 6.544857060052711e-17)
(200.2596824651884 28.16465947152858 -2.841878697930033e-16)
(216.1127714869588 0.01404944449670255 -1.825501709418906e-25)
(216.1063722390867 0.04224135651490671 8.381992904596588e-25)
(216.0959604622221 0.07072377794089484 -2.5374983776919e-24)
(216.0804112096208 0.0997021028200782 5.607566525332859e-24)
(216.0592219564909 0.1294470725601987 -2.715052286795017e-24)
(216.0323310507995 0.1602187033820891 -3.320187568489152e-23)
(215.9996056032515 0.1922661936771722 -8.220724003490738e-23)
(215.960804876377 0.2258491376761432 -1.454255007901418e-22)
(215.9156425440629 0.2612418870861662 -2.212889734721891e-22)
(215.8637894540297 0.2987361837715355 -3.056860935586221e-22)
(215.8048627994878 0.3386460632289597 -4.080242994199998e-22)
(215.7384240540452 0.3813120840246023 -4.980693391490489e-22)
(215.6639771556303 0.4271054613964343 -6.566470604194449e-22)
(215.5809645185665 0.4764328827717417 -7.123544023506101e-22)
(215.4887624720265 0.5297420305604765 -8.544082226626535e-22)
(215.3866762789862 0.5875279139968972 -1.32926048318556e-21)
(215.2739344961416 0.6503402178686284 -4.169210500682985e-21)
(215.1496826877301 0.7187918773469431 9.307669615397628e-22)
(215.0129765132668 0.7935691231170801 -2.85530687875724e-20)
(214.8627741765905 0.8754433022700284 8.779773216913011e-20)
(214.6979282455738 0.9652848518060302 -4.139500976415802e-19)
(214.5171768857425 1.064079891137501 1.705349529767252e-18)
(214.3191345961255 1.172950013907169 -7.308344366672462e-18)
(214.1022826069107 1.293176003288519 9.874383734641556e-15)
(213.8649592045767 1.426226377815228 2.314124133584699e-15)
(213.6053504087107 1.57379190371115 5.267265620091779e-16)
(213.321481656249 1.737827506011364 1.009628352725588e-16)
(213.0112114861201 1.920603373585321 9.738098404468734e-18)
(212.6722287343669 2.124767515527509 -4.954760724062219e-17)
(212.3020554560523 2.353422634349576 5.677041134409349e-17)
(211.8980587489954 2.610220915451694 1.105193179037061e-16)
(211.4574766273032 2.899480948680755 1.244002978255685e-16)
(210.9774661021593 3.226332245710787 1.326369555255166e-16)
(210.4551879581993 3.596891423081272 1.365826504280999e-16)
(209.8879322376651 4.018490479208053 1.388195462090121e-16)
(209.2732760694935 4.499960727685717 1.405840441968463e-16)
(208.6093513307255 5.052013601591378 1.423754024835157e-16)
(207.8955661579008 5.687593393731257 1.444170568256546e-16)
(207.1335036633589 6.422269788193925 1.468841722965228e-16)
(206.3276325248708 7.274646918433616 1.499396471429853e-16)
(205.4869918223696 8.266928138239857 1.538292151396358e-16)
(204.6275583784513 9.4249778263352 1.589304830405205e-16)
(203.7751122502812 10.77807530131793 1.657096839839785e-16)
(202.9689709342724 12.35727883361219 1.757777618294879e-16)
(202.2655872095652 14.19372156498734 1.891542599871414e-16)
(201.7420598183393 16.31012637275524 2.053707684735833e-16)
(201.4957509063181 18.72124094383421 2.2470658149924e-16)
(201.6459835712442 21.41914817334298 2.499202100595906e-16)
(202.321708804767 24.34930351691618 2.790465295004902e-16)
(203.6640459920795 27.50293839356402 3.171232078407269e-16)
(216.1423276558652 0.01548111632963655 -4.294074201460202e-28)
(216.1361846420202 0.04655827882017828 4.128216374350152e-28)
(216.1262134538578 0.07798137466393 -1.084562036914055e-27)
(216.1113529044992 0.1099616260157037 1.128060835889992e-26)
(216.0911269161919 0.1427765171329314 2.764178720494718e-26)
(216.0654595122905 0.1767082626343546 1.102010047521284e-27)
(216.0342173282305 0.2120336050133064 -1.47682805623341e-25)
(215.9971755665876 0.2490388272265416 -5.016160943887161e-25)
(215.9540665052978 0.288025921744803 -1.23210558772427e-24)
(215.9045824878953 0.3293155899958919 -2.255088340379669e-24)
(215.8483667835562 0.3732520062150874 -4.641302572943617e-24)
(215.7850110713408 0.4202075404430578 -4.915862956862215e-24)
(215.7140539083544 0.4705873624571402 -1.839946358331517e-23)
(215.6349775464968 0.5248346155473012 1.71696590357015e-23)
(215.5472041688153 0.5834363132362886 -1.61324045994251e-22)
(215.4500918439406 0.6469300638158199 5.615364023172976e-22)
(215.3429300356279 0.7159118240580433 -2.574849703151062e-21)
(215.2249346812733 0.791044897760575 1.057041147118103e-20)
(215.095242904764 0.8730704235326213 -4.541101676089427e-20)
(214.9529074176662 0.9628196523804113 1.915150260845601e-19)
(214.7968906936403 1.061228382131447 -8.135683076122191e-19)
(214.6260590531952 1.169353997621037 3.44731149859751e-18)
(214.4391768657717 1.288395667165492 -1.462207997889668e-17)
(214.2349011785047 1.419718374646153 6.207029650310847e-17)
(214.0117772265225 1.564881624187384 7.731081656063238e-17)
(213.7682354977233 1.725673848407852 8.519140729416778e-17)
(213.5025913195673 1.904153807352609 8.803051244808365e-17)