/*--------------------------------*- C++ -*----------------------------------*\
| =========                 |                                                 |
| \\      /  F ield         | OpenFOAM: The Open Source CFD Toolbox           |
|  \\    /   O peration     | Version:  v1912                                 |
|   \\  /    A nd           | Website:  www.openfoam.com                      |
|    \\/     M anipulation  |                                                 |
\*---------------------------------------------------------------------------*/
FoamFile
{
    version     2.0;
    format      ascii;
    class       volVectorField;
    location    "1000";
    object      U_0;
}
// * * * * * * * * * * * * * * * * * * * * * * * * * * * * * * * * * * * * * //

dimensions      [0 1 -1 0 0 0 0];


internalField   nonuniform List<vector> 
7500
(
(215.9891687211792 0.0008183111254816687 5.582413564171586e-22)
(215.9829337615787 0.00246510562336889 -2.578907012199671e-21)
(215.9705105246883 0.004214397306904556 8.111615927713611e-21)
(215.9518249219739 0.006025564204871962 -1.693085145900311e-20)
(215.9266044666089 0.00788252521582632 -3.108512216200989e-20)
(215.8946792967203 0.009800808589456511 -3.792001751598422e-20)
(215.8558135265181 0.01179616783924754 -3.57453617370524e-20)
(215.8096967089926 0.01388554972525455 -5.541553860429282e-20)
(215.7559593616198 0.01608745138562769 2.951098570544288e-20)
(215.6941737381757 0.0184210270021743 -3.541603634007004e-19)
(215.6238452833631 0.02090641346994726 1.382318627231959e-18)
(215.5444065031889 0.02356557276771588 -5.550958217470371e-18)
(215.4552112441364 0.02642264535902511 2.444150270031322e-17)
(215.3555271616419 0.02950416960463653 -1.018837492390269e-16)
(215.2445274253129 0.03283947389993651 4.341882284112706e-16)
(215.1212810562295 0.03646115382837457 -1.836161610809677e-15)
(214.9847416125973 0.04040562520928046 1.965496558263283e-14)
(214.8337340629797 0.04471377666078904 4.630882863134843e-15)
(214.6669395096858 0.04943174515276491 1.103089497101254e-15)
(214.4828773558829 0.05461184397541332 1.909056776585902e-16)
(214.2798844344761 0.0603136808485169 1.660036946143414e-18)
(214.0560904935641 0.06660551444358322 -6.419509499483941e-18)
(213.8093892804706 0.07356591179301519 -6.430346828451239e-18)
(213.5374042721578 0.08128578814924818 -6.430346575265475e-18)
(213.2374478452704 0.08987093676179234 -6.43034633597196e-18)
(212.9064723439538 0.0994451915745551 -6.430346123992156e-18)
(212.5410110585043 0.1101544151117642 -6.430345938285831e-18)
(212.1371065300602 0.122171572930406 -6.430345790231059e-18)
(211.6902227844006 0.1357032541867829 -6.430345682273646e-18)
(211.1951369813843 0.1509981392313012 -6.430345591157782e-18)
(210.6458044116719 0.1683581214501118 -6.430345526078527e-18)
(210.0351885773687 0.188153098045422 -6.430345482254027e-18)
(209.3550449382512 0.2108409068068578 -6.430345458055577e-18)
(208.5956423256243 0.2369946213657699 -6.430345449149782e-18)
(207.7453989153277 0.2673406729185855 -6.43034545172358e-18)
(206.7903990587665 0.3028131356460458 -6.430345460794241e-18)
(205.7137380182047 0.3446344590462629 -6.430345471828568e-18)
(204.4946161381139 0.3944291164382934 -6.430345479803769e-18)
(203.1070778763838 0.4544038659333016 -6.430345479252773e-18)
(201.5181811303887 0.52763339824612 -6.430345465217582e-18)
(199.685215035605 0.6185226370202207 -6.430345431827004e-18)
(197.5515533017344 0.7336207103379806 -6.430345367482856e-18)
(195.0392524474359 0.8830059421483514 -6.430345317257741e-18)
(192.0389803627164 1.083192207119495 -6.430345246737824e-18)
(188.3858910449534 1.364236960228273 -6.430345110579082e-18)
(183.8280518892625 1.786478016477036 -6.430344935435467e-18)
(177.8880816566435 2.503878923843672 -6.430344704727552e-18)
(169.8745083198785 3.793163957143336 -6.430344414103294e-18)
(157.9631644128676 7.338766823006836 -6.430344067275279e-18)
(140.0520906960258 9.406422746282196 -6.430343659246696e-18)
(215.9932269620464 0.002688179970043752 -2.455418486028519e-17)
(215.9868225272011 0.007703645679914227 1.227727797352785e-16)
(215.9746698737466 0.01295001716917248 -5.156701985904424e-16)
(215.956181967061 0.01840439131202346 2.185615756399415e-15)
(215.9311465132559 0.02400634097448812 5.162326940549805e-16)
(215.899443583034 0.02979157626163469 1.193821858795844e-16)
(215.8608233252661 0.03581003000970986 3.730143821787613e-17)
(215.8149645767887 0.04211025702579446 -3.125950601252924e-17)
(215.7615224153046 0.04874773455288803 1.609201229123543e-16)
(215.7000811656617 0.05578171289952966 -6.764814360597704e-16)
(215.6301488209826 0.06327433477747613 -2.028665897090039e-15)
(215.551162454569 0.07129252437365978 -2.352770117764392e-15)
(215.4624814052951 0.07990927174280482 -2.408100432203754e-15)
(215.3633795899343 0.08920474077243608 -2.510286258843495e-15)
(215.2530375135052 0.09926752710781353 -2.156237565263036e-15)
(215.1305327762707 0.1101960937179742 -3.673629704591972e-15)
(214.9948289662726 0.1221004457947978 1.498701310311149e-14)
(214.8447627990594 0.1351041067058184 -4.900848327060424e-15)
(214.6790291692877 0.1493464641238648 -4.900427452263622e-15)
(214.4961637259862 0.164985576151343 -4.897661551569886e-15)
(214.2945225113245 0.18220155143878 -4.611169634794629e-15)
(214.0722580864695 0.2012006490474449 -6.033699827024718e-15)
(213.8272914253533 0.222220286567373 -7.02806134786232e-15)
(213.5572786764213 0.245535202416728 -7.352004650585449e-15)
(213.2595716567232 0.2714650961558664 -7.345792199767625e-15)
(212.9311706342335 0.3003841774574107 -7.338910193292563e-15)
(212.5686675472173 0.3327332023597224 -7.331276030550787e-15)
(212.1681772666147 0.3690347828836152 -7.328202418895161e-15)
(211.7252537758522 0.4099130505740244 -7.314654874099411e-15)
(211.2347871456564 0.456119178197517 -7.304179481605761e-15)
(210.6908758076312 0.5085648816638932 -7.2924994474085e-15)
(210.0866667133695 0.5683669421192218 -7.279431671125381e-15)
(209.4141532708907 0.6369071620672039 -7.264774073864209e-15)
(208.6639171152083 0.7159143316371149 -7.248284496801685e-15)
(207.8247943839046 0.8075781842698898 -7.229668386062168e-15)
(206.8834402895484 0.9147114049687657 -7.208564594395156e-15)
(205.8237425800131 1.040991314804572 -7.184525966354316e-15)
(204.6260214644254 1.19129420888574 -7.156992600935185e-15)
(203.2659568025388 1.372229962013879 -7.125246293583408e-15)
(201.7130660903655 1.592975529930423 -7.088389096881048e-15)
(199.9285057838468 1.866616540649205 -7.044835100737009e-15)
(197.8618576124967 2.212500845230261 -7.025123886156387e-15)
(195.445837938949 2.660112274832444 -6.937148395328497e-15)
(192.5899723140362 3.25719308498355 -6.860513955153237e-15)
(189.1683179088031 4.086955617731082 -6.76556005280167e-15)
(185.0215853593329 5.296581216105328 -6.708605427441633e-15)
(179.9417295263514 7.204636341584647 -6.576989655283425e-15)
(174.0624521569075 10.30005041519632 -6.373916562316435e-15)
(167.3186977139451 16.87607525618675 -5.948121701777049e-15)
(161.9437556200729 22.68035423266493 -5.318736081542591e-15)
(216.0002787210419 0.004438785963699984 -2.45608168727848e-17)
(215.9934965369393 0.01289915127051715 1.22803998010996e-16)
(215.9814078504016 0.02150448735789231 -5.157761278992664e-16)
(215.9630167488555 0.03042484001049537 2.185903241442573e-15)
(215.9381282504017 0.03964636192322619 5.155993613579897e-16)
(215.9066763132909 0.04920761008171287 1.240638317032694e-16)
(215.8684000598719 0.0591773141723197 2.005062680927758e-17)
(215.8229774724186 0.0696287395692705 4.463099719257197e-17)
(215.7700457465055 0.08064304139020112 -1.57795214583122e-16)
(215.7091851023426 0.09231240471274224 6.769943799610402e-16)
(215.639911364404 0.1047388433696457 2.027403376635021e-15)
(215.5616699326744 0.1180332453613215 2.349544991987659e-15)
(215.4738292715999 0.1323164039203232 2.402692111182929e-15)
(215.3756738731917 0.1477208851515529 2.502114813495689e-15)
(215.2663964360451 0.1643930851736383 2.146122491567317e-15)
(215.145088649844 0.1824955839862892 3.656906593331188e-15)
(215.010730463701 0.2022098957669106 -5.156380056716274e-15)
(214.8621776728456 0.2237397020423983 4.897372431172982e-15)
(214.6981475143198 0.2473146841493428 4.889203635165918e-15)
(214.5172019139755 0.2731951006942483 4.884149026598113e-15)
(214.3177279605275 0.3016772928235029 1.316514536766916e-16)
(214.0979150785667 0.333100351075288 2.581923930596756e-14)
(213.8557282459001 0.3678542453768496 -4.397562631016246e-16)
(213.588876442135 0.4063898104081058 1.715307479045851e-14)
(213.2947753113583 0.4492311011575874 9.604078854685544e-15)
(212.970502758356 0.4969908008459568 7.551774498787842e-15)
(212.6127458558726 0.5503895941254441 7.258377531569291e-15)
(212.2177369930374 0.6102807400922925 2.2252375953136e-15)
(211.7811766058115 0.6776815332920543 2.682341788083492e-14)
(211.2981390492082 0.7538139884340166 1.166415138819539e-14)
(210.762957130483 0.8401580212053488 7.834225454835379e-15)
(210.1690794289031 0.9385217695049792 6.976332539559092e-15)
(209.508892676424 1.051135731479498 6.763066089865199e-15)
(208.7734989763739 1.180780486775055 6.66144961662009e-15)
(207.9524348655812 1.330961864800698 6.552635308486197e-15)
(207.033314767493 1.506160134176853 6.430374093888246e-15)
(206.0013571995388 1.712204386145502 6.296130689702432e-15)
(204.8387780408627 1.956767393189654 6.127735779532252e-15)
(203.5240469970683 2.250149759515311 6.003758520767138e-15)
(202.0308886525021 2.606484241667866 5.569077548615498e-15)
(200.3269995745366 3.045659494315902 6.31991132459563e-15)
(198.3721808594091 3.59674038135807 1.807274693528172e-15)
(196.1156854546157 4.303144012552217 1.984159164377636e-14)
(193.4951671415441 5.231756887319095 2.77888043253675e-14)
(190.4413094092598 6.491466203359622 8.380035032812704e-15)
(186.8999072133025 8.256695258863511 3.283569028247286e-15)
(182.838146931781 10.8343431351069 1.481255067438039e-15)
(178.535247015977 14.43086818158951 3.334975170276596e-16)
(174.253836088119 20.68141746271204 -8.982036523493092e-16)
(171.5652182291382 26.35342896402042 -2.41285616425329e-15)
(216.0109825613113 0.00615426651418253 -5.801934308779926e-18)
(216.0041972519559 0.01818471563298429 2.900783455927998e-17)
(215.9924402505129 0.03029315178106303 -1.218082973449812e-16)
(215.9744235317863 0.04274029843028663 5.160789998536833e-16)
(215.9498741644964 0.05558139522482881 -2.185168994234531e-15)
(215.9188183177589 0.06888228873217143 -5.148808971997284e-16)
(215.8810315639971 0.08274520566366979 -1.205183642989746e-16)
(215.8362012680568 0.09727871029882677 -2.743217489808518e-17)
(215.783979908465 0.1126013819012181 -5.24857481863958e-18)
(215.7239582250035 0.128842997662695 -1.331119807383329e-18)
(215.6556590066463 0.146143666281165 7.388081538138692e-18)
(215.5785367366212 0.1646556933916535 -1.610365041580902e-17)
(215.4919720195428 0.1845458008926618 9.638425296397632e-17)
(215.3952642072475 0.2059973852442148 -3.660638270176942e-16)
(215.2876237118604 0.2292131578062751 1.610134900234963e-15)
(215.1681631817589 0.254418304865087 3.062526865498898e-15)
(215.0358872514314 0.2818642179129118 -9.811352058789691e-15)
(214.8896807452855 0.3118328971622218 -2.294957223209362e-15)
(214.728295062866 0.3446421798802348 -5.184337202879579e-16)
(214.5503324190719 0.380651984787036 -6.813590855438168e-17)
(214.3542275649775 0.4202718153229556 6.609572273434185e-16)
(214.1382265305613 0.4639698330722892 2.489673264436086e-14)
(213.9003618273928 0.5122839023065554 -4.902487636413705e-15)
(213.6384234230526 0.5658351257394222 1.236569415215105e-14)
(213.34992463936 0.6253445517118222 6.811562632458536e-15)
(213.0320619245801 0.6916539502333368 5.263313658339723e-15)
(212.6816671939108 0.7657518528417026 5.696592800265536e-15)
(212.2951511065125 0.8488064630333602 4.315940835821108e-16)
(211.8684352295498 0.942207620221863 2.75821976205238e-14)
(211.3968705014576 1.047620814813506 1.42678192387045e-14)
(210.8751387071393 1.167057418524538 1.092368498234081e-14)
(210.2971327610561 1.302966979378304 1.017435903439655e-14)
(209.6558103594728 1.458359892227171 1.000331643651346e-14)
(208.9430139453031 1.63697243064941 1.157998172813961e-14)
(208.1492477288732 1.843490778822247 1.523840402302227e-14)
(207.2634038054395 2.08385848356162 1.521122377194023e-14)
(206.2724686680649 2.365722303350862 1.517905237459671e-14)
(205.1611896212881 2.699070857436942 1.514055542366536e-14)
(203.9115503925007 3.097125185913424 1.509492050767384e-14)
(202.5023441573392 3.577723725501797 1.503588233696387e-14)
(200.9087590383363 4.165457952163482 1.499221337752919e-14)
(199.1021925014527 4.89543193534299 1.000911804897616e-14)
(197.0515797738454 5.818512249370586 3.499744608639905e-14)
(194.7273882243133 7.009014291505041 3.682139588135714e-14)
(192.1117856122802 8.576930796717386 2.152257642753066e-14)
(189.2297591492162 10.67871451705745 1.999057863055801e-14)
(186.1738331268124 13.57334896028288 1.915867102650061e-14)
(183.2805551162789 17.32558632687475 1.830449501952512e-14)
(180.9590950865507 22.90648999516055 1.722235836959549e-14)
(180.1738879606157 28.5958711537607 1.504799436278719e-14)
(216.0248369179409 0.007799912630419233 -5.796614705527463e-18)
(216.0178994515827 0.02325294429428759 2.898362675981706e-17)
(216.0062440530944 0.03875558352718965 -1.21738851141608e-16)
(215.9885464355058 0.054612216636161 5.159893398852644e-16)
(215.9644263681546 0.07097454658104539 -2.185992380618666e-15)
(215.933922967238 0.08794109747787106 -5.163318157790984e-16)
(215.8968301808895 0.1056351487861163 -1.222121964915565e-16)
(215.8528315515593 0.1241928573186776 -2.910283500497462e-17)
(215.8015818588207 0.1437610192216705 -7.457767519608606e-18)
(215.7426813212905 0.1645012767219333 -8.329359123993368e-19)
(215.6756656659496 0.1865907945472541 -6.150477716811114e-18)
(215.6000045807143 0.2102230075791674 2.022640745663153e-17)
(215.5150960531981 0.2356096227339844 -9.278903285008254e-17)
(215.4202595236572 0.2629834173076144 3.841555322697713e-16)
(215.3147287494241 0.2926015783794871 -1.64312256390283e-15)
(215.1976435450333 0.324749638079831 -2.85231648451682e-15)
(215.0680402017914 0.3597461160700273 -7.085325125476857e-18)
(214.9248405122494 0.3979480029529269 7.738244420446713e-18)
(214.7668391642009 0.4397572637655798 -7.711046740476519e-17)
(214.5926892260894 0.4856285919088139 2.637551188362133e-16)
(214.4008854140356 0.5360787062501084 -1.191567924467137e-15)
(214.1897447668183 0.5916975655295844 -4.870750140986214e-15)
(213.957384279373 0.653161980312599 -4.871253779705748e-15)
(213.7016949574938 0.7212522425465291 -4.833630885611419e-15)
(213.4203116505925 0.79687257924735 -4.806788930742184e-15)
(213.110577893906 0.8810764878941018 -4.778118927975107e-15)
(212.7695048460089 0.9750983523680046 -4.744398950034604e-15)
(212.3937232434904 1.080393206934754 -4.22897896788357e-15)
(211.9794271187938 1.198687166932825 -6.733751185223348e-15)
(211.5223078573046 1.332041959054858 -8.793857114115155e-15)
(211.0174770389374 1.482938289526901 -9.338656456828946e-15)
(210.4593764892969 1.654384669266992 -9.211574436291958e-15)
(209.8416741282571 1.85006110089561 -8.935925717355379e-15)
(209.1571446573973 2.074511168374512 -1.02193017587004e-14)
(208.3975341637691 2.333402757590622 -1.365441004484906e-14)
(207.5534059492518 2.633878643161543 -1.333812407936725e-14)
(206.613974214271 2.985021407899065 -1.297133902516835e-14)
(205.5669677138077 3.398540164025729 -1.25569569986074e-14)
(204.3986007823812 3.889744663852614 -1.208773865655396e-14)
(203.0934032667342 4.47905990621702 -1.155470087651978e-14)
(201.6343114317108 5.193848992218716 -1.093689193377976e-14)
(200.0047563258165 6.071402729136962 -1.047065101581304e-14)
(198.1927032613634 7.163636060002147 -9.078502016195599e-15)
(196.1958603375813 8.542053281426824 -7.145939682142288e-15)
(194.0334342622921 10.30429808758246 -8.429711989455356e-15)
(191.7734037272359 12.57020195934857 -9.627027383967948e-15)
(189.5479805269061 15.52527619190735 -7.769159812571339e-15)
(187.6505333235105 19.15812586954948 -5.44419707115192e-15)
(186.4449916104388 23.95924755832158 -2.828253313865023e-15)
(186.5819395283359 29.18588690588604 3.053578411310263e-16)
(216.0421131027114 0.00942892052089528 -4.297730813453821e-21)
(216.0352772600731 0.02825424002837325 2.051650276031387e-20)
(216.0239319571114 0.04717729593048352 -7.279120760345352e-20)
(216.0067503937968 0.06646612838035981 2.233361276344137e-19)
(215.9832513754249 0.08632780073600567 -4.460463090505554e-19)
(215.9534615365121 0.1069034840327497 -8.206018513140203e-19)
(215.9172174955687 0.1283479483386679 -9.707257932089327e-19)
(215.8742265655476 0.1508333705881433 -1.022595166002486e-18)
(215.8241607168015 0.1745425730513877 -1.042457650716185e-18)
(215.766637764923 0.1996725762860094 -1.037554966539941e-18)
(215.7012100765315 0.2264372870380178 -1.077223840023919e-18)
(215.6273652927024 0.2550695920440789 -9.485786544439971e-19)
(215.5445224209622 0.2858242562053859 -1.369276706369995e-18)
(215.4520255128608 0.3189813451508283 -2.535402905812942e-19)
(215.3491370307696 0.3548501635295258 -1.943989259623951e-18)
(215.2350303047365 0.3937739001484001 -9.325743284584817e-18)
(215.1087807924134 0.4361351083264643 -1.131666686393578e-17)
(214.9693561008529 0.4823621651099 -1.061431539464086e-17)
(214.8156046032444 0.5329369155844262 -1.056512391918079e-17)
(214.6462424330759 0.5884037668627869 -9.725013999232774e-18)
(214.4598386201698 0.6493805643843361 -9.368365467202568e-18)
(214.2547980929173 0.7165716730758569 -2.8838070928316e-17)
(214.0293422243533 0.7907838027422558 -4.512577682463472e-17)
(213.7814865508895 0.872945269492426 -6.319766961943504e-17)
(213.509015239505 0.9641295862213736 -8.3043604140414e-17)
(213.2094518244455 1.065584542687807 -1.044153468567403e-16)
(212.8800256841575 1.178768293940297 -1.394764866859584e-16)
(212.5176336943024 1.305394459083288 8.023764848377659e-17)
(212.1187964933252 1.447488889676742 -3.464045948187602e-15)
(211.6796088765417 1.607461664733446 1.774742051556278e-14)
(211.1956840681466 1.788199115983631 3.720939522009335e-15)
(210.6620921923597 1.993182403891695 3.676310131326264e-16)
(210.0732944216695 2.2266416926936 -6.829946819256858e-16)
(209.4230767911522 2.493758401012137 -9.465046254470408e-16)
(208.7044917829479 2.800935079484244 -1.126792410099796e-15)
(207.9098236669646 3.156156983647152 -1.311812141705102e-15)
(207.0306004463376 3.569469318509528 -1.515068604075517e-15)
(206.0576763930372 4.053647788171962 -1.739221966040738e-15)
(204.9813872413077 4.625174920901072 -1.986287530319252e-15)
(203.7919016578227 5.305634525241649 -2.258255978988501e-15)
(202.480818979618 6.123226017807896 -2.556124871033798e-15)
(201.0435110323186 7.114679097047309 -2.883035276631247e-15)
(199.4823909211043 8.328450982938616 -3.259331023892711e-15)
(197.8148013447085 9.827312893205098 -3.59649942350777e-15)
(196.0831896176639 11.69114705099655 -3.998106197870075e-15)
(194.374933169527 14.00507565845875 -4.482294842762375e-15)
(192.8305672344251 16.89232118537398 -5.016879786164182e-15)
(191.6863094646173 20.3284247284813 -5.489405174812366e-15)
(191.219697237523 24.49155997317139 -5.540061271957252e-15)
(191.8610389409355 29.11623455797752 -5.321209950013178e-15)
(216.0625418674223 0.01101243523107857 1.217923054035941e-21)
(216.0557627511101 0.03306517585273385 -5.815635606126824e-21)
(216.0446365329269 0.05527469504465798 2.064393159935402e-20)
(216.0279056983408 0.07787631617250033 -6.336766613053398e-20)
(216.0050585850243 0.1011188666324623 1.266664492294356e-19)
(215.9760920512947 0.1251930657165552 2.325932993121962e-19)
(215.9408596420888 0.1502843486095784 2.744474468520769e-19)
(215.8990808210161 0.1765934218674018 2.882328935985467e-19)
(215.8504355273651 0.2043331856533457 2.924010946361179e-19)
(215.7945558263556 0.2337322491237592 2.905735270763843e-19)
(215.7310125892768 0.2650389341540104 2.966290486558361e-19)
(215.6593148043473 0.2985237498656725 2.702379821242814e-19)
(215.578906258428 0.3344824543088091 3.485247763834434e-19)
(215.4891598243209 0.3732399412531164 1.309982052461154e-19)
(215.3893714379036 0.4151547594359467 4.586028763354042e-19)
(215.2787533263032 0.4606243856263427 1.85264522562035e-18)
(215.1564261933558 0.5100914217540886 2.167371209207232e-18)
(215.0214103589627 0.5640508882047524 2.175383108893734e-18)
(214.8726157453391 0.6230588365807552 2.289907258735065e-18)
(214.7088305545296 0.6877425676789318 1.882117597663212e-18)
(214.5287084819802 0.7588128134584344 2.676532853496248e-18)
(214.330754297859 0.8370783362779327 2.823854912045524e-18)
(214.1133076146285 0.923463520709574 2.904307337020544e-18)
(213.8745246562696 1.01902969107694 2.537622862684599e-18)
(213.6123578546506 1.125001094417206 -3.140018227531097e-18)
(213.3245331305877 1.242796760431055 2.495051631948441e-17)
(213.0085247868118 1.374069810358118 -9.353803205831657e-17)
(212.6615280693953 1.520756267386399 4.127789435636806e-16)
(212.2804296763908 1.685136065153945 -1.733091835302896e-15)
(211.861776866805 1.869909810898654 3.948883455332567e-14)
(211.4017464096596 2.078296027309093 -7.601875779992873e-17)
(210.8961155799258 2.314155096735111 -5.702590321548641e-17)
(210.3402387500594 2.582148335961572 -5.062193380375875e-17)
(209.7290359641102 2.887942643602853 -5.219344125385787e-17)
(209.0570045202932 3.238475987308487 -5.641930509977172e-17)
(208.3182801300478 3.642298478209604 -6.234896683268621e-17)
(207.5067678798803 4.110031041407612 -7.009980225920948e-17)
(206.6163076327766 4.654998555255976 -8.012518048686899e-17)
(205.6410234028589 5.294074807142891 -9.307048952144467e-17)
(204.5766039448615 6.048608774021439 -1.098256899029517e-16)
(203.4222207575405 6.945729373098143 -1.315265779097644e-16)
(202.1822901445308 8.019482329888445 -1.601831634251074e-16)
(200.8705374350685 9.312665838074896 -2.183886890123661e-16)
(199.5167723656599 10.87708638076378 -3.300478204439987e-16)
(198.1749166685562 12.77396944234378 -4.864745460086062e-16)
(196.9355885917943 15.06033018178648 -6.541651796517758e-16)
(195.9301182452692 17.80960428476448 -8.962148688709591e-16)
(195.3474904939466 21.00709062679661 -1.376014635578412e-15)
(195.3983106473947 24.6731389419585 -1.883838730660497e-15)
(196.3629127575242 28.72541257065078 -2.732309248258096e-15)
(216.0861483552081 0.01255918536683474 1.40467192168223e-24)
(216.0795540982816 0.03774536832015385 -6.446456144454879e-24)
(216.068784338892 0.06316204133580186 1.949435015556933e-23)
(216.0526446255798 0.0890199852854888 -4.300748646923679e-23)
(216.0306114570574 0.1155810594959093 2.054656949636213e-23)
(216.0026435258181 0.1430730723738992 2.549212705871515e-22)
(215.9686041263118 0.1717130816879701 6.342035693428644e-22)
(215.9282351162492 0.2017322133457017 1.127444385913609e-21)
(215.881234542588 0.2333757500893807 1.726891850229493e-21)
(215.8272547751104 0.2669052803344902 2.400087786692789e-21)
(215.765889812193 0.30260326839554 3.236690536031413e-21)
(215.6966741418712 0.3407765666922443 3.976229065298682e-21)
(215.6190805277915 0.3817600983763771 5.304168080447174e-21)
(215.5325152023803 0.4259212685599013 5.959332908115514e-21)
(215.4363125685533 0.4736650284503159 6.35365542852031e-21)
(215.329729333923 0.5254397300858979 1.427274181007431e-20)
(215.2119377783679 0.5817439672840721 2.607804303618653e-20)
(215.0820181572521 0.643134590286403 4.35891464838213e-20)
(214.9389502022983 0.7102361303668533 4.617502336739027e-20)
(214.7816036369877 0.7837519356827251 1.223375768539947e-19)
(214.6087276328587 0.8644773923710979 -1.149220596743734e-19)
(214.4189391423498 0.9533156979150216 1.001238346384353e-18)
(214.2107100584494 1.051296773537628 -3.541949023029734e-18)
(213.9823531844074 1.159600055232947 9.831312330074935e-15)
(213.7320070550378 1.279582100321301 -5.579185960358798e-17)
(213.457619748099 1.412810200744056 -4.420814583763679e-17)
(213.156931983339 1.561103526270443 -1.035796329015374e-16)
(212.8274600603809 1.726583753773149 1.446684629023296e-16)
(212.4664795957368 1.911737705619682 -8.962928782258152e-16)
(212.0710116723701 2.119495269373686 1.884503831243945e-14)
(211.6378139740003 2.353326887774128 4.577690967134999e-15)
(211.1633810535163 2.617366138377251 1.196863307474191e-15)
(210.6439600836767 2.916564912425167 3.957117220669171e-16)
(210.0755936567352 3.256889253581964 2.060681774423898e-16)
(209.4542055304318 3.645568791953673 1.617674191658974e-16)
(208.7757500047598 4.091411381461506 1.524995693400815e-16)
(208.0363861613541 4.60525874689263 1.522997001678633e-16)
(207.2327591794835 5.200508702869815 1.552301454782285e-16)
(206.3629209062966 5.893683518919649 1.601435636047887e-16)
(205.4276891144954 6.705051108709138 1.670798097165586e-16)
(204.4317063842939 7.659544671481557 1.763097522743256e-16)
(203.3862270641283 8.787384943371322 1.886057593170467e-16)
(202.3125973522838 10.12463714849187 2.029468348801066e-16)
(201.2474564346939 11.71216029533531 2.218265605798196e-16)
(200.2483195040137 13.59459994386012 2.176084345344902e-16)
(199.400687048025 15.80867881392472 2.026751554385208e-16)
(198.8194999839654 18.39197906767156 1.81761984916601e-16)
(198.6552546447287 21.33660791058475 1.322347797899054e-16)
(199.0717076184325 24.602917765882 6.54485722796615e-17)
(200.2596824431889 28.16465946324227 -2.841878681769775e-16)
(216.1127714305078 0.01404944442737141 -1.82529703021101e-25)
(216.1063721806498 0.04224135638966883 8.38134311643366e-25)
(216.0959604040001 0.07072377776694377 -2.537660059199234e-24)
(216.0804111524372 0.09970210257603697 5.607527573082675e-24)
(216.0592219004933 0.1294470722385906 -2.714666773160907e-24)
(216.0323309963204 0.1602187029812061 -3.320089827084888e-23)
(215.9996055507012 0.1922661931861294 -8.220569954033922e-23)
(215.9608048260907 0.2258491370797622 -1.454235473286558e-22)
(215.9156424963167 0.2612418863731056 -2.212868043556472e-22)
(215.8637894090726 0.2987361829343457 -3.056839337233562e-22)
(215.8048627575366 0.3386460622640092 -4.080223897826727e-22)
(215.7384240152739 0.3813120829330267 -4.98067911971916e-22)
(215.6639771201661 0.4271054601834845 -6.566463763683737e-22)
(215.5809644864867 0.4764328814447314 -7.123549451615354e-22)
(215.4887624433551 0.5297420291274687 -8.544109349368953e-22)
(215.3866762536921 0.5875279124649025 -1.329266908248209e-21)
(215.2739344741388 0.6503402162425486 -4.169222795091169e-21)
(215.1496826688811 0.7187918756293528 9.307457771067161e-22)
(215.0129764973864 0.7935691213081746 -2.855310057291862e-20)
(214.8627741634523 0.8754433003675226 8.779768094229245e-20)
(214.6979282349159 0.9652848498060201 -4.139501508541895e-19)
(214.517176877276 1.064079889035046 1.705349414890956e-18)
(214.3191345895412 1.172950011697249 -7.308344451195084e-18)
(214.1022826018866 1.293176000966446 9.874383734746912e-15)
(213.8649592007854 1.426226375377274 2.314124133655612e-15)
(213.605350405826 1.573791901155092 5.26726562074353e-16)
(213.3214816539514 1.737827503336561 1.009628353517208e-16)
(213.0112114841023 1.920603370792652 9.738098459389062e-18)
(212.6722287323387 2.124767512619219 -4.95476071199898e-17)
(212.3020554537444 2.353422631328927 5.67704113652971e-17)
(211.8980587461622 2.610220912322582 1.105193178352504e-16)
(211.4574766237247 2.899480945446565 1.244002977152768e-16)
(210.9774660976422 3.226332242373947 1.326369553672032e-16)
(210.455187952593 3.596891419636914 1.365826502268049e-16)
(209.8879322308569 4.018490475685394 1.388195459725866e-16)
(209.2732760614298 4.49996072410516 1.405840439354521e-16)
(208.6093513214061 5.05201359796903 1.423754022082342e-16)
(207.8955661471867 5.687593390048217 1.44417056552934e-16)
(207.133503651245 6.422269784356236 1.468841720368488e-16)
(206.3276325113464 7.274646914430464 1.499396469210422e-16)
(205.4869918075079 8.26692813406707 1.53829214969403e-16)
(204.6275583623755 9.424977821964591 1.589304829351833e-16)
(203.7751122331337 10.77807529670443 1.657096839599944e-16)
(202.9689709162095 12.35727882869256 1.757777619137531e-16)
(202.2655871907391 14.19372155968158 1.891542602011946e-16)
(201.7420597988811 16.31012636696957 2.053707688389773e-16)
(201.4957508863191 18.72124093745712 2.247065820428821e-16)
(201.645983550729 21.41914816624566 2.499202108296524e-16)
(202.3217087836595 24.34930350890844 2.790465305307282e-16)
(203.6640459701838 27.50293838447649 3.171232092480439e-16)
(216.1423275992689 0.01548111625671091 -5.222664070888913e-28)
(216.1361845834405 0.04655827867990035 5.129460974970231e-28)
(216.1262133955015 0.0779813744549078 -5.810702421546462e-28)
(216.1113528471792 0.1099616257179997 1.185883751350158e-26)
(216.0911268600661 0.1427765167411174 2.713235302572355e-26)
(216.0654594577057 0.176708262147691 -2.437574074460827e-27)
(216.0342172756112 0.2120336044272834 -1.567059737211527e-25)
(215.9971755162847 0.2490388265349579 -5.188652026997376e-25)
(215.9540664575934 0.2880259209423319 -1.260516399431911e-24)
(215.9045824430255 0.3293155890759621 -2.297700780123605e-24)
(215.8483667417092 0.3732520051686593 -4.701088454119664e-24)
(215.7850110326542 0.4202075392601286 -4.995509877685219e-24)
(215.7140538729185 0.4705873611288712 -1.850121761659724e-23)
(215.63497751436 0.524834614067634 1.704425332672577e-23)
(215.5472041399858 0.5834363116028164 -1.6147357441006e-22)
(215.4500918183882 0.6469300620305758 5.613637161865577e-22)
(215.3429300132845 0.7159118221271924 -2.575042523430226e-21)
(215.2249346620335 0.7910448956938837 1.057020390448921e-20)
(215.0952428884846 0.8730704213421554 -4.541123071852829e-20)
(214.9529074041672 0.9628196500795363 1.915148162732303e-19)
(214.796890682706 1.06122837973324 -8.135684976820099e-19)
(214.6260590445764 1.169353995137167 3.447311331909004e-18)
(214.4391768591898 1.288395664605411 -1.46220800412831e-17)
(214.2349011736558 1.419718372016195 6.207029634425892e-17)
(214.0117772230837 1.564881621490762 7.731081640308409e-17)
(213.7682354953589 1.725673845644636 8.519140718797072e-17)
(213.5025913179362 1.904153804519885 8.803051243086109e-17)