/*--------------------------------*- C++ -*----------------------------------*\
| =========                 |                                                 |
| \\      /  F ield         | OpenFOAM: The Open Source CFD Toolbox           |
|  \\    /   O peration     | Version:  v1912                                 |
|   \\  /    A nd           | Website:  www.openfoam.com                      |
|    \\/     M anipulation  |                                                 |
\*---------------------------------------------------------------------------*/
FoamFile
{
    version     2.0;
    format      ascii;
    class       volScalarField;
    location    "0.1";
    object      p;
}
// * * * * * * * * * * * * * * * * * * * * * * * * * * * * * * * * * * * * * //

dimensions      [1 -1 -2 0 0 0 0];


internalField   nonuniform List<scalar> 
16128
(
0.999974
0.999865
1.00457
1.00277
0.993639
0.997344
0.996235
0.996807
1.00736
1.0332
1.02804
1.00988
0.95622
0.884008
0.820297
0.928759
0.962489
1.10564
1.02911
1.0258
0.998342
1.00012
0.987161
0.988669
0.980719
1.02293
1.0368
1.04321
1.0363
1.0334
1.02941
1.01434
1.00858
1.17345
1.14571
1.06949
1.06397
0.974307
0.830381
1.83663
3.63786
15.185
16.3034
16.5432
16.7803
17.0968
16.6647
16.4184
0.999821
0.999164
0.999451
0.992189
1.00115
1.01589
1.04337
1.01556
0.993497
0.979328
0.986931
0.997616
1.04594
1.17644
1.6147
1.34562
1.22196
0.971771
0.997694
1.00284
1.00158
0.998813
1.02483
1.02211
1.05366
1.03672
1.01692
0.95458
0.975538
0.998867
1.00141
1.02822
1.05164
0.973237
1.00808
1.02111
1.0136
1.06854
1.09749
1.04567
3.88601
15.6649
16.4161
16.4837
16.6189
16.8915
16.4569
16.2241
0.999993
1.00037
1.01138
1.0053
1.00302
0.929592
0.84697
0.887837
0.960683
1.03289
1.01471
1.02742
1.02446
0.959396
0.721206
0.762919
0.89722
0.996714
0.987503
1.00103
1.00812
1.01366
0.988618
0.990295
0.975815
1.07952
0.9978
1.04593
1.03593
1.07854
1.09635
1.05884
1.05856
1.02452
1.00237
1.06967
1.09658
1.09789
1.04671
1.3014
3.87706
15.7502
16.5777
16.4671
16.4102
16.6356
16.1632
15.9271
0.999997
0.999501
0.980399
0.984094
1.00364
1.07737
1.1948
1.12614
1.0399
0.969172
0.805316
0.869195
0.893113
1.05344
1.14484
1.22187
1.1106
1.05827
0.975871
0.987765
0.990775
0.989692
0.994022
0.993904
0.995181
1.05492
1.49859
1.33408
1.30636
1.22116
1.2079
1.10488
1.00235
1.04146
1.04087
1.06051
1.20052
1.13237
0.956227
1.64076
3.57205
14.485
16.9346
16.4666
16.1991
16.3926
15.8803
15.6295
1
1.00008
1.02206
1.03382
0.973067
0.961291
0.948756
0.990931
1.04905
1.05274
1.35229
1.35584
1.14273
1.10436
1.09001
1.08873
1.10854
1.05804
1.07717
1.03136
0.998174
1.00786
1.03424
1.033
1.03624
0.994798
0.882839
0.937401
1.08558
1.14091
1.10874
1.09672
1.01518
1.04524
1.05245
1.04962
1.28604
1.1538
1.0225
1.56358
3.1559
13.1522
17.2405
16.5545
16.0464
16.1798
15.6186
15.3481
0.999974
0.999881
0.980368
0.969099
1.02389
1.05639
1.02069
0.997088
0.868197
0.933339
0.931569
0.845043
1.03173
1.195
1.254
1.07967
0.946276
0.945587
0.931526
0.983616
0.986027
1.07638
1.0675
1.09654
1.08394
1.04469
0.995096
1.03103
1.0841
1.10017
1.14325
1.11596
1.09057
0.955917
1.02897
1.03035
1.35159
1.22869
1.10396
1.53867
2.64245
12.1631
17.4732
16.6645
15.9294
15.9156
15.2943
15.0345
1.00001
1.0005
1.01848
1.01236
0.997047
0.858468
0.946496
0.975222
1.07817
1.02992
1.00697
1.01847
0.702397
0.610404
0.627001
0.917712
1.03283
1.00585
1.04639
1.04244
1.1245
1.11809
1.11992
1.09963
1.0789
1.07341
1.07603
1.06271
1.05244
1.08885
1.015
1.06875
1.06399
1.11364
1.10407
1.09375
1.22338
1.41881
1.22461
1.1964
2.31394
11.3527
17.405
16.6636
15.798
15.6014
14.8971
14.6821
0.999992
0.99948
0.982825
0.98894
0.994269
1.17358
1.07921
1.02985
0.992409
0.991962
0.981317
0.983876
1.23622
1.24117
1.16485
1.05617
1.05987
0.840525
0.958139
0.896128
0.826222
0.979462
0.971904
1.02523
1.01362
1.07193
1.04309
1.03411
1.12038
1.12043
1.18938
1.10511
1.04409
1.06139
1.05877
1.06854
1.12156
1.43455
1.22693
1.07205
1.92528
10.3758
16.7952
16.189
15.432
15.2049
14.468
14.3222
0.999998
1.00012
1.0163
1.02498
1.00741
0.894839
0.939982
0.97019
1.0161
1.00356
0.997423
0.967825
1.01192
1.0663
1.05447
1.01772
1.00892
1.34655
1.24096
1.30016
1.42821
1.23291
1.19936
1.03495
1.03708
1.00023
1.0223
1.0261
1.00928
1.04665
1.05993
1.06579
1.03913
1.03284
1.06038
1.06082
1.13073
1.4031
1.20135
1.10155
1.68875
8.75544
15.7349
15.3949
14.9074
14.8132
14.1527
14.0154
1.00002
0.999559
0.982815
0.969385
0.988923
1.07101
1.05619
1.07144
0.999234
0.957453
0.823798
0.955715
1.00738
1.1328
1.0703
1.02788
1.02778
1.01822
1.05425
1.09354
1.12071
1.09015
1.08452
1.00314
1.02595
1.02785
1.05033
1.05829
1.05664
1.06074
1.06146
1.09284
1.12972
1.11492
1.09307
1.10096
1.10031
1.33667
1.30958
1.37712
1.38973
7.2382
14.8304
14.6098
14.4011
14.4789
13.8975
13.7881
0.99997
1.00065
1.01929
1.0339
1.00951
0.937948
0.941297
0.924986
0.997682
1.17727
1.46696
1.24352
1.07221
0.931185
0.953068
0.951335
0.945838
1.09753
1.06806
1.05027
1.01228
1.02304
1.07489
1.05981
1.05791
1.0609
1.02881
1.04331
1.04307
1.06355
1.06817
1.50972
1.46397
1.32559
1.22375
1.07459
1.10766
1.11211
1.30517
1.42516
1.38158
5.26576
13.8915
14.2491
14.279
14.3084
13.7635
13.5971
1.00001
0.99939
0.977918
0.959984
0.993383
1.04606
1.04073
1.04503
0.98924
0.934897
0.839246
0.88355
0.977674
0.981786
0.990377
0.980989
0.980899
0.928868
0.974763
0.977788
0.978708
1.0022
1.1043
1.04901
1.0407
1.03412
1.04282
0.994902
1.01711
1.01728
1.03241
0.618762
0.535849
0.816646
0.946856
1.05407
1.04339
1.07486
1.08413
1.3189
1.4253
3.28158
12.1999
14.024
14.311
14.1784
13.6456
13.4036
0.999895
1.00418
1.02659
1.05074
0.999984
0.975474
0.940717
0.92933
0.981256
1.01023
1.02181
1.03936
1.02638
0.966485
0.968526
1.01989
1.03833
1.04061
1.02759
0.973443
0.952199
0.948745
1.08729
1.07519
1.07937
1.06124
1.07426
1.07546
1.07554
1.00016
1.03433
1.09723
1.33911
1.1955
1.14026
1.06001
1.0872
1.10597
1.11259
1.05568
1.54367
2.11074
9.53324
13.948
14.274
13.8911
13.4961
12.9997
1.00017
0.990503
0.970168
0.942495
1.00744
1.02976
1.19145
1.1442
1.06078
0.817051
0.906562
0.975737
0.956078
0.966436
0.975775
0.998155
0.986358
0.919731
0.933772
1.07023
1.13271
1.08982
1.09455
1.06053
1.04341
1.05041
1.1434
1.28039
1.16164
1.05399
1.01005
1.06012
1.1141
1.08432
1.08172
1.07464
1.10519
1.11277
1.11235
1.14431
1.16297
1.66121
6.4864
13.3766
13.7006
13.3688
13.2841
12.4073
0.999779
1.01108
1.03062
1.06393
0.985406
0.977868
0.797799
0.888553
0.984828
1.16825
1.07416
0.935211
0.870267
0.755317
0.733888
0.895982
0.92824
0.923666
1.30881
1.3605
1.43655
1.34433
1.24571
1.1085
1.04285
1.05911
1.02247
0.856318
0.822261
0.920161
1.01331
1.11953
1.09043
1.07222
1.07139
1.05113
1.0697
1.0979
1.15804
1.16883
1.09228
1.19304
3.15045
11.6743
12.943
12.9982
12.6954
11.7219
1.00023
0.988506
0.968531
0.936717
1.01681
1.02397
1.20254
1.11573
1.08368
1.01803
0.995237
1.05031
1.14031
1.57804
1.61751
1.31981
1.17126
0.983109
1.03022
1.07814
1.08482
1.07288
1.06561
1.07041
1.03122
1.01676
1.02538
1.12795
1.27306
1.16827
1.16458
1.18339
1.11163
1.10001
1.08419
1.0838
1.0253
1.08797
1.15838
1.20877
0.944709
0.914356
1.8861
9.01949
12.0943
12.5936
12.2677
10.9082
0.999804
1.00984
1.0314
1.05931
0.976445
0.975807
0.870424
0.911095
0.99121
1.01438
1.01965
1.02431
1.05228
1.04405
1.00522
1.01319
0.980936
0.980306
0.979574
0.933958
0.898455
0.900485
0.949113
1.04652
1.01468
1.01166
1.00463
1.0027
1.04428
1.05663
1.04705
1.10027
1.08695
1.07261
1.02603
1.07675
1.09766
1.10677
1.19196
1.08961
1.05995
0.975583
1.2605
4.606
11.1874
11.7379
10.6906
8.02919
1.00015
0.994809
0.97073
0.937988
1.03458
1.05879
1.0908
1.12319
1.02236
0.961614
0.970105
0.997951
1.00487
1.0027
1.00218
1.01121
1.00575
1.00455
0.9984
0.933813
0.991731
0.972441
1.04625
1.05569
1.04083
1.03343
1.03449
1.00686
0.982259
0.963613
0.978924
1.01289
1.08588
1.16036
1.16873
1.1598
1.09002
1.15905
1.16301
1.14369
1.0642
1.03885
1.03287
2.13689
8.03494
10.9401
9.86607
7.24284
0.999892
1.00106
1.02622
1.05586
0.969775
0.91114
0.946652
0.911128
0.9892
1.04833
1.04905
1.01756
1.01793
0.971687
0.938987
0.976475
0.97032
1.00464
1.01472
1.22297
1.16944
1.16832
1.14243
1.14836
0.987338
1.00284
1.03187
1.00021
0.973493
0.980819
1.0404
1.04256
1.18411
1.14241
1.13161
1.042
1.09441
1.10922
1.12473
1.08709
1.08863
1.00975
0.991723
1.20096
3.57101
8.76386
9.22793
7.25212
0.999976
0.999363
0.975816
0.958571
1.00381
1.09589
1.06015
1.02547
0.994607
0.989973
0.987135
1.00815
1.01018
1.0351
1.09772
1.06359
1.07645
1.04614
1.03159
1.06273
1.06698
0.964063
0.966217
1.00236
0.963278
0.971301
1.00378
1.1739
1.27478
1.24224
1.18684
1.18662
1.12113
1.12366
1.09699
1.09643
1.0801
1.08149
1.06833
1.07295
1.0379
0.999096
1.00614
0.892255
1.68295
5.1294
8.10662
6.91723
1
1.00048
1.02254
1.01607
1.0079
0.940826
0.888459
0.934752
1.00324
1.02709
0.986133
1.00814
1.01314
1.04023
1.04938
1.03763
1.03313
1.03348
1.02989
1.03574
0.988842
0.992199
1.15598
1.13049
1.18343
1.15855
1.08713
1.04502
1.06867
1.0952
1.09518
1.12121
1.12159
1.07994
1.09712
1.10466
1.10231
1.09504
1.10797
1.06045
1.02954
1.04011
0.836835
0.779682
1.41789
2.05344
4.72167
5.94646
0.999999
0.999631
0.980121
0.983378
0.984674
1.02864
1.28311
1.14698
1.04943
0.966103
0.989698
1.21001
1.28229
1.25457
1.14449
1.01885
1.01314
0.993726
0.99835
1.03594
1.04978
1.03806
1.08162
1.0897
1.08686
1.08383
1.08529
1.02196
1.01434
1.01084
1.09762
1.08875
1.0903
1.11096
1.12047
1.11459
1.06523
1.00241
1.02403
1.03813
1.03819
1.05583
1.01314
0.94107
1.06469
1.15406
1.89449
3.87333
1.00001
0.999962
1.01667
1.0369
1.0149
0.978101
0.674515
0.829568
0.998253
1.02851
1.01463
0.814137
0.800922
0.773046
0.887123
0.93407
0.975985
1.04388
1.07882
1.1036
1.08943
1.08917
1.05629
1.02813
0.972196
0.983379
1.02274
1.08787
1.07178
1.07092
1.06347
1.10231
1.07226
1.03647
0.936463
1.01664
1.07466
1.08639
1.06809
1.06918
1.04606
1.03934
1.03898
1.03675
1.02488
1.01721
1.05731
1.77657
0.999972
0.999934
0.985059
0.953037
0.973693
1.04324
1.24966
1.15831
0.992509
0.979504
1.00459
0.983315
0.986453
1.03771
1.01331
0.988504
1.00033
1.00599
1.00653
1.0482
1.07828
1.09504
1.12618
1.16519
1.16514
1.16927
1.08713
1.07984
1.10176
1.08482
1.08397
1.07127
1.07851
1.07737
1.08088
1.07682
1.10614
1.10758
1.12955
1.09981
1.08906
1.05059
1.05719
1.05595
1.12737
1.07973
1.05931
1.02976
1.00001
1.00004
1.01376
1.04936
1.02371
0.91537
0.955863
0.954868
0.997292
0.999284
1.08185
1.11558
1.07226
1.03986
0.96334
0.988245
0.959726
0.996884
1.08081
1.06714
1.06133
1.07704
1.24782
1.51322
1.48538
1.4032
1.28619
1.02974
1.09527
1.09217
1.08334
1.07982
1.09927
1.08478
1.04305
1.07393
1.08672
1.13609
1.16852
1.15935
1.11069
1.05674
1.08114
1.09831
1.10469
1.09906
1.07262
1.04235
0.999976
0.999862
0.988405
0.956529
0.971829
1.0119
1.08747
1.08701
1.03655
1.0349
0.921108
0.887857
0.894308
0.93945
1.10861
1.11439
1.15072
1.11345
1.10315
1.04071
1.06811
1.07146
1.13755
1.17444
1.13089
1.11993
1.09841
1.07966
1.0734
1.07673
1.09124
1.11836
1.12319
1.10542
1.00231
1.05983
1.08663
1.13774
1.20192
1.17214
1.16572
1.07562
1.09015
1.09048
1.17269
1.11367
1.11542
1.08302
0.999984
1.00033
1.00512
1.03243
1.05591
1.01851
0.848198
0.81067
0.905262
1.00274
1.02181
1.00796
1.0245
1.00258
1.0308
1.02898
1.03075
1.02214
1.11703
1.18387
1.17384
1.18055
1.13866
0.98603
0.992676
0.989614
1.06703
1.05363
1.05027
1.05775
1.07297
1.15211
1.13252
1.09409
1.03677
1.06993
1.13054
1.16361
1.22393
1.18092
1.16167
1.16182
1.04491
1.12668
1.15306
1.13463
1.17293
1.13125
0.999999
0.999138
0.999126
0.978878
0.941104
0.986011
1.14984
1.14059
1.0794
0.946793
0.962115
0.986898
1.03199
1.03107
0.913619
0.908226
0.876774
0.930038
0.928386
1.06035
1.05396
1.21278
1.20452
1.18694
1.19819
1.13271
1.08436
1.06032
1.065
1.06415
1.08927
1.11265
1.1635
1.12579
1.08062
1.04161
1.12473
1.21465
1.18181
1.15979
1.15556
1.1674
1.10472
1.15447
1.18258
1.18332
1.23482
1.06896
1.00038
1.00123
1.00136
1.00885
1.04157
1.02144
0.9608
0.983506
0.982987
1.14721
1.09474
1.05897
0.995565
0.992659
1.04581
1.08053
1.09466
1.00555
1.02476
1.02466
1.12982
1.15345
1.47486
1.44196
1.43957
1.40167
1.07442
1.06512
1.05624
1.08261
1.0862
1.11698
1.16246
1.12744
1.11242
1.11418
1.10811
1.17498
1.20871
1.18219
1.25164
1.21743
1.19875
1.22766
1.17534
1.24871
1.19841
1.19764
0.999032
0.99711
1.00089
1.00104
0.984987
0.986916
0.99502
0.99552
1.06233
0.95942
0.974467
0.974189
0.99473
0.996257
1.0107
1.03318
1.03236
1.03941
0.84915
0.89226
0.868142
0.965834
1.03223
1.09468
1.13993
1.22824
1.15251
1.07452
1.10846
1.12178
1.11556
1.16558
1.19933
1.17714
1.13071
0.978512
1.07904
1.13815
1.27132
1.1922
1.12743
1.12683
1.09975
1.12722
1.15733
1.15084
1.18749
1.11363
1.00324
1.00353
1.00037
0.990675
0.994465
1.00082
1.01265
1.01485
0.912277
0.953067
0.972288
1.00811
1.06819
0.950497
0.979648
0.973886
0.957434
0.985453
1.16544
1.09047
1.11217
1.10481
1.33158
1.47196
1.40327
1.35216
1.27693
1.13595
0.858802
0.909412
0.996217
1.1143
1.21542
1.18221
1.13258
1.02047
1.13561
1.14783
1.18537
1.27296
1.16529
1.14535
1.10538
1.13461
1.15031
1.1619
1.11579
1.08701
0.996855
0.996491
1.00357
1.0107
1.00649
0.979904
0.988257
0.985726
1.09235
1.06127
1.06367
1.01767
0.961907
1.21786
1.18906
1.10514
1.04904
1.02819
1.05813
1.06033
1.08599
1.16926
1.15366
1.13723
1.12404
1.13683
1.10434
1.11796
1.19925
1.14994
1.13301
1.19165
1.18859
1.16316
1.15052
1.00252
1.13283
1.16857
1.17505
1.1961
1.14754
1.1234
1.12759
1.13481
1.1241
1.11082
1.11234
1.04123
1.00257
1.00297
1.00003
0.986545
0.975319
1.01479
1.00944
1.00667
0.934692
0.967352
1.07102
1.05177
1.08577
0.861612
0.762419
0.926638
1.0928
1.08663
1.10366
1.18284
1.15238
1.12665
1.08027
1.0235
1.03089
1.04273
1.05758
1.05766
1.03388
1.01591
1.02832
1.11582
1.18605
1.15111
1.15034
0.969037
1.1127
1.14884
1.18934
1.14037
1.14616
1.12096
1.12708
1.10412
1.08929
1.09062
1.06008
1.0561
0.998077
0.997748
1.00267
1.04635
1.07347
1.02328
0.990526
0.985218
1.0259
1.02614
0.901722
0.903539
0.877328
1.01692
1.17459
1.03759
1.02935
1.06409
1.03414
0.985991
1.02323
1.02591
1.00865
1.02232
1.03603
1.03666
1.0242
1.0237
0.985956
1.00383
1.05464
1.11812
1.16934
1.14712
1.1186
1.13965
1.14099
1.17409
1.18149
1.10835
1.11121
1.14732
1.09058
1.07666
1.05902
1.076
1.06076
1.06653
1.00101
1.0015
0.983941
0.934028
0.914597
1.02324
1.08186
1.0331
0.952256
0.981775
1.01563
1.0723
1.05714
1.01558
0.968697
0.98813
1.118
1.20485
1.20916
1.25663
1.0596
1.04533
1.02045
1.0242
1.01485
1.02052
1.033
1.047
1.063
1.05621
1.06393
1.10582
1.11481
1.14919
1.09728
1.13566
1.14617
1.141
1.17599
1.1484
1.16266
1.10817
1.10226
1.06536
1.06008
1.04541
1.04604
0.990757
0.999531
0.999402
1.03051
1.02952
1.03761
0.922054
0.832685
0.928106
1.08374
1.07707
1.06772
1.04213
1.00287
1.00303
1.01039
1.01343
0.893528
0.856523
0.699878
0.659591
0.672183
0.927172
0.915094
0.906551
0.926294
0.992743
1.04015
1.01703
1.02034
1.0359
1.11148
1.11589
1.12707
1.12794
1.11394
1.13282
1.1297
1.15557
1.16338
1.17886
1.16515
1.15981
1.10398
1.10891
1.04819
1.03567
1.03002
1.05603
1.00025
1.00013
0.968464
0.974541
0.964134
1.05434
1.10095
1.1441
1.12368
0.99527
1.0031
0.995516
0.994873
0.992
1.08198
1.03891
0.995078
0.938361
1.04668
1.14005
1.40627
1.19362
1.12664
1.11538
1.10061
1.06661
1.07072
1.04543
1.01912
1.05531
1.06954
1.10493
1.10731
1.13142
1.08906
1.08359
1.09739
1.16314
1.18597
1.19436
1.2063
1.17149
1.10928
1.16877
1.09946
1.09864
1.03197
0.973258
0.999536
0.999257
1.0253
1.05888
1.13812
1.03279
1.01828
0.818261
0.812752
0.925967
1.04068
1.03767
1.01749
1.00374
0.948568
1.02302
1.20404
1.71069
1.43283
1.21181
1.04758
1.01771
1.02335
1.02325
1.02273
1.06948
1.06835
1.07463
1.03968
1.06252
1.13911
1.12
1.1178
1.1737
1.11614
1.10625
1.12928
1.19847
1.22872
1.20853
1.20745
1.17652
1.14453
1.17737
1.13832
1.12349
1.10119
1.10063
1.00022
1.00033
0.978367
0.920924
0.824332
0.948514
1.00214
1.16372
1.10514
1.04621
0.961975
0.967271
1.05673
1.01239
1.01316
0.971197
0.927945
0.769492
0.890733
0.963249
0.958565
0.967272
0.968973
0.996919
0.996535
1.05881
1.08467
1.08101
1.0568
1.05848
1.05149
1.06815
1.10982
1.07456
1.09306
1.09294
1.14856
1.20247
1.27454
1.25578
1.18174
1.1542
1.20374
1.24084
1.14338
1.17051
1.14824
1.13273
0.999451
0.999143
1.02305
1.07092
1.142
1.05218
0.955033
0.895566
0.94541
1.00136
1.01913
0.994285
0.856216
0.952514
0.949559
0.973486
0.984952
0.915589
0.945621
0.974819
1.0392
1.02756
1.03905
1.03575
1.06242
1.07319
1.10343
1.09613
1.05635
1.07065
1.07116
1.11153
1.11868
1.11341
1.10098
1.10868
1.12717
1.18209
1.32401
1.29191
1.27007
1.14531
1.1939
1.22895
1.24599
1.15818
1.17301
1.13001
0.999921
1.00042
0.976394
0.965205
0.941181
0.953386
1.03241
1.13365
1.08108
1.03588
1.05081
1.04632
1.10542
1.06092
1.01455
0.998458
1.008
1.05591
1.23839
1.17418
1.15632
1.2307
1.18622
1.18922
1.09234
1.12909
1.10207
1.10104
1.04399
1.06788
1.0717
1.10877
1.10905
1.12187
1.1198
1.11814
1.13615
1.18144
1.2988
1.32529
1.28836
1.2211
1.24082
1.23058
1.23267
1.2019
1.26484
1.21075
0.998835
0.998292
1.01378
1.01358
1.01292
1.01374
0.995137
0.964126
0.967673
0.976647
0.956585
0.981179
0.990197
0.977649
1.20792
1.1138
1.11406
1.04943
1.06309
1.07172
1.07309
1.04227
1.04026
1.039
1.05248
1.0699
1.10855
1.06987
1.01626
1.02899
1.07415
1.07497
1.11716
1.13705
1.12555
1.11467
1.14044
1.16689
1.23707
1.36999
1.33175
1.32816
1.26451
1.22216
1.21343
1.28895
1.37299
1.30132
1.00031
1.0004
1.00104
0.99868
0.989569
0.988904
0.987933
0.992897
0.994348
1.02549
1.04632
1.02293
1.01005
1.02206
0.912943
0.950936
0.934408
1.01967
1.02515
1.03447
1.01808
1.01033
0.943435
0.909728
0.940077
1.05141
1.07596
1.06274
1.03892
1.00693
1.05443
1.06935
1.06975
1.14902
1.12197
1.07566
1.11389
1.13714
1.22238
1.36372
1.40019
1.36033
1.35657
1.11443
1.26902
1.31641
1.40555
1.34246
1.00075
1.00103
0.998139
1.00016
0.999616
1.0156
1.01679
1.01077
1.00803
0.977797
0.951639
0.972755
1.1289
1.18176
1.10658
1.05023
0.992473
1.15562
1.29537
1.13811
1.05061
1.10804
1.10401
1.11157
1.04815
1.057
1.05429
1.08049
1.0673
1.03781
1.04975
1.04926
1.07276
1.0728
1.10389
1.23888
1.21683
1.2146
1.26062
1.36755
1.40796
1.42327
1.24219
1.2205
1.27703
1.37118
1.37538
1.41669
0.999401
0.999283
1.0061
1.01637
1.00813
0.979345
0.947678
0.986942
1.03381
1.01532
0.996266
0.991183
0.799187
0.795125
0.743239
0.85549
0.937394
0.676191
0.691993
0.743316
0.893007
1.60178
1.42822
1.40616
1.18976
1.10282
1.04602
1.0657
1.05816
1.03253
1.03113
1.04493
1.04494
1.0733
1.08467
1.16818
1.16684
1.22618
1.24977
1.39049
1.4769
1.42291
1.27377
1.26136
1.31466
1.34664
1.40749
1.46609
1.00016
1.00022
0.98961
0.972004
0.975059
1.04406
1.0932
1.05143
0.993614
0.905599
0.885018
0.939979
1.07897
1.04953
1.15199
1.10629
1.06831
1.18748
1.10718
1.053
0.925693
0.701727
0.891216
1.01771
1.01261
1.01195
1.05677
1.08844
1.09579
1.07766
1.05318
1.01934
1.05218
1.05218
1.09624
1.09996
1.22072
1.21902
1.3053
1.38125
1.50412
1.4438
1.37891
1.22143
1.36347
1.40143
1.44927
1.51586
0.999617
0.999308
1.01583
1.0335
1.09342
0.969466
0.947987
0.956795
1.02675
1.11055
1.11486
1.06961
1.07
0.998409
1.01267
1.0108
1.16013
1.07475
1.06273
1.00428
1.00551
0.941995
0.949704
0.961117
0.953346
1.04393
1.06017
1.20751
1.24092
1.14485
1.09608
1.0331
1.01657
1.05951
1.06772
1.1392
1.1389
1.23496
1.28216
1.48398
1.42718
1.42098
1.41307
1.20302
1.3502
1.39324
1.43754
1.5144
1.00001
1.00048
0.971462
0.950857
0.842656
0.945339
0.985857
1.13972
1.19412
1.10183
1.05211
1.01461
1.01631
1.01593
1.00859
1.00281
0.78759
0.852705
0.98024
0.997212
0.967028
0.986489
1.00688
1.0042
1.02479
0.968549
0.958903
0.920831
0.918968
1.06697
1.03719
1.0291
1.04176
1.04188
1.06568
1.06659
1.14959
1.16792
1.28126
1.40096
1.39001
1.38069
1.37376
1.39176
1.19651
1.30929
1.36693
1.426
0.999892
0.998846
1.0346
1.05299
1.1974
1.10955
1.02586
0.772406
0.68597
0.86914
1.06015
1.04748
1.02671
1.06673
1.0695
1.0418
1.08366
1.12859
1.06203
1.02697
0.871576
0.957273
0.958988
1.08087
1.05889
1.0338
1.00645
1.03042
1.03838
1.08921
1.115
1.06637
1.04911
1.05405
1.05331
1.06262
1.06999
1.15788
1.2642
1.3533
1.34379
1.3517
1.31149
1.30802
1.2776
1.36931
1.46227
1.39515
1.00002
1.00108
0.963558
0.95229
0.80164
0.913393
0.996054
1.14075
1.17005
1.06321
0.97964
0.954527
0.981759
1.17988
1.23834
1.24806
1.14843
1.07028
1.02572
1.06947
1.26051
1.15199
1.10267
1.08552
1.07959
1.08561
1.08601
1.09436
1.06742
1.00341
0.987098
1.02954
1.04214
1.04853
1.0437
1.03936
1.07511
1.16507
1.32421
1.31219
1.28824
1.30608
1.24901
1.2997
1.33909
1.38563
1.54408
1.4365
0.999852
0.998706
1.03395
1.05282
1.24313
1.03592
0.979056
0.986786
1.05844
1.05855
1.03471
0.992305
0.951564
0.884398
0.925061
0.909075
1.02607
1.01735
1.01633
1.03059
1.03898
1.0854
1.05275
1.07528
1.0732
1.07769
1.07807
1.09263
1.06333
1.03407
1.04931
1.05031
1.05041
1.04441
1.05682
1.05636
1.09638
1.15412
1.28872
1.25472
1.22828
1.23658
1.18971
1.27031
1.29123
1.33709
1.35676
1.35983
1.00001
1.00073
0.96587
0.950478
0.771295
0.961641
1.01368
1.10406
1.00894
0.995474
1.02246
1.02089
0.975325
0.929551
0.93977
0.974396
1.02554
1.01859
1.0189
0.9586
0.969294
0.957569
0.965545
0.956975
1.10783
1.1256
1.11403
1.10625
1.05853
1.03923
1.04446
1.04816
1.01968
1.01175
1.01565
1.03574
1.10751
1.17977
1.22775
1.20948
1.20857
1.13417
1.20909
1.22416
1.26377
1.2651
1.28829
1.23197
0.999761
0.99898
1.03139
1.04894
1.26108
1.066
1.02388
0.902757
1.0317
1.10818
1.03913
0.980253
0.732103
0.90551
1.02629
0.999764
1.00284
1.03404
1.03438
1.04136
0.995282
1.00983
1.01458
1.05224
1.0249
1.02976
1.04888
1.04861
1.05259
1.05197
1.0497
1.06106
1.05451
1.06193
1.05745
1.09126
1.11228
1.17202
1.16766
1.16706
1.15871
1.14623
1.162
1.18018
1.20561
1.18255
1.17503
1.17587
1.00003
1.00026
0.970926
0.941664
0.789525
0.951956
0.9766
0.984221
0.889709
0.850383
0.919195
1.00355
1.53786
1.29958
1.21461
1.07847
1.01593
1.04814
1.0436
1.03048
1.02424
1.05716
1.09742
1.09763
1.10866
1.08972
1.08567
1.08065
1.0833
1.04944
1.07334
1.07325
1.12082
1.15151
1.19282
1.16255
1.17476
1.13308
1.13183
1.09513
1.11678
1.1261
1.14806
1.1539
1.16145
1.13492
1.1375
1.12052
0.999744
0.999404
1.02478
1.09933
1.13154
1.008
0.848752
0.841026
1.00269
1.02681
1.007
1.01029
1.08878
1.06399
1.05357
0.991818
1.00342
1.01849
1.08008
1.06127
1.01838
0.99178
0.951688
0.975128
0.996961
0.991389
1.10438
1.10739
1.10941
1.03804
1.10349
1.12347
1.13566
1.06679
1.07768
1.1027
1.132
1.09212
1.06217
1.08291
1.09983
1.10757
1.1123
1.09441
1.0753
1.07612
1.06162
1.02046
1.00014
1.00009
0.97734
0.890781
0.952266
1.056
1.466
1.32453
1.16258
1.0672
1.04977
1.05562
1.02576
0.983263
0.99641
1.00212
1.0378
1.06417
0.991113
0.939291
0.966775
0.981867
0.980963
1.03076
1.02442
1.12844
1.13455
1.12992
1.06473
1.08962
1.10382
1.13628
1.12963
1.19151
1.21102
1.1785
1.13457
1.10825
1.07403
1.06824
1.06903
1.09732
1.10194
1.08342
1.11581
1.12286
1.12373
1.06782
0.999033
0.998752
1.01813
1.11108
1.10013
0.963798
0.829973
0.938774
1.18389
1.10449
1.14013
1.0587
0.971402
0.981828
0.990449
0.987829
0.937502
0.929015
0.99612
1.03544
1.03299
1.01397
1.0158
1.01433
1.03566
1.04668
1.15852
1.09212
1.08111
1.14212
1.1607
1.16139
1.21783
1.21818
1.24566
1.18288
1.18448
1.13214
1.11691
1.0122
0.989
1.0319
1.03703
1.1944
1.23926
1.35159
1.24627
1.22937
1.00098
1.00315
0.994646
0.873043
0.831711
0.963155
0.987951
1.00141
0.549124
0.759972
0.758324
0.929875
1.12034
1.10402
1.10586
1.06967
1.0457
1.01428
1.05875
1.09723
1.06833
1.06799
1.02688
1.04748
1.04774
1.0903
1.09172
1.09068
1.08755
1.18586
1.2222
1.27091
1.2724
1.22909
1.25728
1.25721
1.26633
1.15857
1.15942
1.16952
1.20609
1.06389
0.914335
0.880766
1.01033
1.15267
1.11961
1.11846
0.998637
0.997183
0.998426
1.11378
1.15556
1.04167
0.972199
0.974167
1.41009
1.25137
1.12823
1.01477
1.03452
1.04254
1.09811
1.09661
1.10804
1.10887
1.11729
1.09635
1.01409
1.03288
1.03233
1.11076
1.09974
1.09174
1.07745
1.06203
1.10946
1.14317
1.20446
1.36108
1.31025
1.28973
1.28336
1.25596
1.29683
1.18902
1.19947
1.14919
1.13971
1.3653
1.3258
1.27022
1.10475
1.10672
1.0915
1.06745
1.00011
1.00846
1.00832
0.976734
0.928751
0.978422
1.03301
1.0265
1.03798
1.03153
0.996781
0.999243
0.993244
1.05196
1.13971
1.09103
1.04971
1.06363
1.05478
1.06117
1.07149
1.0669
1.14066
1.15678
1.14945
1.13381
1.05312
1.07786
1.10721
1.10642
1.22323
1.44307
1.34998
1.28962
1.17162
1.26363
1.32403
1.2632
1.25139
1.11961
1.03265
0.899512
1.02506
1.07118
1.11752
1.09144
1.05489
1.04901
1.00084
0.991295
0.992865
0.994269
1.01376
1.01726
1.01791
0.976267
0.937458
0.936903
1.02246
1.04158
0.966049
0.814671
0.877869
0.956394
0.925347
0.891058
0.925269
0.92274
1.11585
1.06823
1.05519
1.05509
1.05077
1.07022
1.04969
1.06632
1.06451
1.08224
1.19986
1.38303
1.2696
1.24846
1.16677
1.20793
1.23974
1.26643
1.16273
1.17606
1.1472
1.09008
1.02595
1.04516
1.04572
1.08536
1.05451
1.06306
0.99965
1.00502
1.02265
1.01954
0.997731
1.00802
1.00633
1.03764
1.07657
1.11859
1.02366
0.962327
1.00129
1.14682
1.07016
1.03897
1.09646
1.09515
1.07137
1.11581
1.06342
0.971348
0.981246
0.979978
1.01412
1.01385
1.03073
1.03071
1.05721
1.05593
1.27336
1.32072
1.29307
1.23498
1.07514
1.21172
1.28485
1.18485
1.20764
1.1672
1.13109
1.01867
1.01512
1.0283
1.0474
1.02447
1.02815
1.01961
1.00001
0.986966
0.948782
0.969827
0.980039
1.12081
1.10935
1.02614
1.01561
0.962332
0.981393
0.984736
1.02914
1.03321
0.982656
0.95155
0.991544
0.961541
0.992102
0.984487
0.768035
0.881973
0.88368
1.01298
1.01373
1.06521
1.05875
1.05498
1.04807
1.06752
1.16743
1.24344
1.20369
1.09939
1.13845
1.18014
1.1951
1.19683
1.12895
1.12971
1.0667
1.05041
1.06209
1.06186
1.06106
1.07961
1.09493
1.07743
0.999759
1.01463
1.07542
1.06087
1.0191
0.719713
0.705871
0.889761
1.11386
1.10316
1.05128
1.03015
0.995252
0.993145
1.07657
1.11149
1.07693
1.09842
1.05892
1.0931
1.26483
1.18855
1.17729
1.01643
1.03512
1.03676
1.03022
1.05299
1.0478
1.08027
1.09709
1.09696
1.12409
1.09955
1.13899
1.14102
1.16678
1.12576
1.12195
1.05728
1.05816
1.05822
1.07079
1.07113
1.08567
1.1144
1.09982
1.08423
1.00006
0.988139
0.910421
0.896885
1.02984
1.20257
1.19523
0.967963
0.76272
0.826103
0.9007
1.05556
1.03177
0.992773
1.00355
1.03624
1.06123
1.0556
1.02541
1.03251
1.05273
1.0576
1.05541
1.05481
1.03086
1.04036
1.0491
1.04841
1.02566
1.06837
1.06819
1.08832
1.09608
1.13741
1.15433
1.17104
1.13122
1.13098
1.0897
1.08298
1.09994
1.11962
1.12498
1.12054
1.17942
1.16604
1.16573
1.11723
0.999499
1.01956
1.07428
1.04968
0.84825
0.939414
0.939999
1.15175
1.19736
1.09981
1.00844
0.990361
0.985291
0.92091
0.885673
0.933351
1.02131
1.03988
1.05531
1.04829
1.06674
1.06167
1.04564
1.05703
1.066
1.0758
1.06938
1.05813
1.06786
1.03939
1.06535
1.07625
1.0777
1.08642
1.0878
1.08641
1.10594
1.10724
1.1401
1.14001
1.17799
1.1886
1.2289
1.26479
1.2635
1.28614
1.24267
1.20571
1.00003
0.972629
0.976134
0.987091
1.18296
1.16481
1.27075
1.20106
1.09419
1.01911
0.959472
0.944044
0.953717
1.11183
1.16114
1.07912
0.993253
1.01224
1.00843
1.02373
1.11817
1.07639
1.21685
1.12545
1.12184
1.08322
1.08221
1.06339
1.05533
0.976204
0.993053
1.02839
1.03839
1.03055
1.03681
1.03617
1.05946
1.06171
1.122
1.1228
1.15522
1.1521
1.27072
1.38608
1.43007
1.38469
1.3771
1.28106
1.00058
1.02781
1.02525
1.03245
0.85782
0.858335
0.78925
0.794827
0.831162
0.99328
1.04979
1.01865
1.00872
1.036
1.04877
1.04348
1.0206
1.00424
0.99984
0.977479
0.919036
0.927164
0.874994
0.977937
1.08843
1.13142
1.03516
1.05395
1.08772
1.14774
1.13719
1.10462
1.05839
1.04023
1.02888
1.03808
1.038
1.15077
1.15172
1.19538
1.19665
1.31467
1.33822
1.43266
1.42414
1.43825
1.30045
1.38722
1.00095
0.972271
0.951269
0.969723
1.18124
1.09931
1.04991
1.25262
1.17903
1.05737
1.01554
1.00127
1.01197
1.05557
1.0732
1.0255
1.05043
1.04224
1.04215
0.993554
0.972372
0.96268
0.978767
1.15056
1.09622
1.07883
1.0752
1.03434
1.07422
1.03592
1.05297
1.05212
1.0488
1.04712
1.04773
1.03669
1.11369
1.13425
1.18484
1.25942
1.35291
1.38636
1.34824
1.36588
1.38726
1.3888
1.42357
1.41709
1.00049
1.02769
1.02288
1.00484
0.85728
0.900866
0.836351
0.764933
0.926686
0.980249
1.12196
1.09891
1.10654
0.979671
0.963295
0.980879
0.977037
0.996468
0.986661
0.976085
0.994119
0.993673
0.98749
1.09611
1.05825
1.04256
1.04676
1.05167
1.06039
1.05598
1.06466
1.02718
1.04529
1.05508
1.04179
1.07994
1.12867
1.1685
1.14606
1.35686
1.34005
1.31972
1.31759
1.33855
1.40885
1.45504
1.45492
1.52611
1.00026
0.974898
0.976392
0.963425
1.05484
1.32627
1.47872
1.2284
1.03713
1.0268
0.994332
1.00496
0.984425
1.00025
1.00339
1.00864
0.998761
0.91463
0.954477
0.984742
1.05499
1.09485
1.10748
1.03284
1.04519
1.03721
1.04143
1.04606
1.00311
1.02524
1.01955
1.08837
1.07073
1.05528
1.05193
1.06882
1.12857
1.18787
1.26507
1.28032
1.41512
1.3602
1.40751
1.42587
1.48895
1.51303
1.54743
1.47017
0.999402
1.01971
1.06806
1.07252
0.997527
0.805056
0.799851
0.916275
0.968828
1.06274
1.05345
1.05553
0.999727
1.00276
0.974776
0.975792
0.971797
1.10979
1.06353
1.05948
1.08352
1.07706
0.964313
1.00762
1.01612
1.06306
1.07952
1.05433
1.04537
1.04258
1.04929
1.04358
1.04013
1.04754
1.07479
1.10624
1.13245
1.17285
1.27514
1.28895
1.42779
1.40203
1.49693
1.54785
1.59324
1.58076
1.56226
1.60786
1.00015
0.982185
0.920092
0.951405
1.03933
1.02565
1.02409
1.05095
1.04237
0.949833
0.94234
0.950852
1.01739
1.0787
1.13562
1.09374
1.04993
1.06104
1.06483
1.0263
1.03653
1.04476
1.03572
1.0773
1.0841
1.0857
1.08776
1.07554
1.07553
1.04302
1.03829
1.03151
1.03531
1.0365
1.11675
1.11475
1.16728
1.23645
1.32092
1.30841
1.34341
1.34479
1.50557
1.54894
1.65072
1.58732
1.58603
1.47011
0.999537
1.02034
1.0623
1.01955
0.927041
0.954021
0.959533
0.970775
1.00728
1.0275
1.01075
1.02009
1.01873
1.01707
0.998333
1.01771
1.104
1.07397
1.07829
1.00893
1.00803
0.986147
1.01962
1.01532
1.01313
1.03397
1.03423
1.05818
1.06704
1.05841
1.04135
1.06809
1.06496
1.06074
1.05021
1.10134
1.13721
1.25114
1.28138
1.28837
1.24501
1.31275
1.34934
1.49307
1.54239
1.56208
1.43329
1.34033
0.999534
0.97267
0.980628
0.984968
1.04504
1.04716
1.17866
1.13181
1.03023
0.976118
0.979763
0.978549
0.997734
0.922944
0.953138
0.95437
0.927019
0.954244
0.948041
0.952181
0.998027
1.02049
1.16294
1.11054
1.10401
1.08433
1.12878
1.15863
1.13158
1.06685
1.06487
1.14482
1.11855
1.08844
1.08936
1.08803
1.15198
1.17112
1.22478
1.2262
1.25632
1.2476