/*--------------------------------*- C++ -*----------------------------------*\
| =========                 |                                                 |
| \\      /  F ield         | OpenFOAM: The Open Source CFD Toolbox           |
|  \\    /   O peration     | Version:  v1912                                 |
|   \\  /    A nd           | Website:  www.openfoam.com                      |
|    \\/     M anipulation  |                                                 |
\*---------------------------------------------------------------------------*/
FoamFile
{
    version     2.0;
    format      ascii;
    class       surfaceScalarField;
    location    "0.1";
    object      phi;
}
// * * * * * * * * * * * * * * * * * * * * * * * * * * * * * * * * * * * * * //

dimensions      [1 0 -1 0 0 0 0];
oriented        oriented;


internalField   nonuniform List<scalar> 
31936
(
0.00525004
1.85873e-07
0.00524891
8.92344e-07
0.00524488
3.693e-06
0.00523254
1.39821e-05
0.00524171
-9.41345e-06
0.00525144
-2.29431e-05
0.00526204
1.47441e-05
0.00526345
1.09993e-05
0.00524701
9.35831e-06
0.00525115
4.85448e-06
0.00525803
6.97339e-06
0.00525286
8.13512e-06
0.00530335
-6.2134e-06
0.00519133
-4.01798e-06
0.00515907
8.18509e-06
0.00521744
-5.654e-05
0.00520764
-3.31136e-05
0.005234
-1.03307e-05
0.00519615
4.48835e-05
0.00518246
1.03497e-05
0.00517857
2.0046e-05
0.00515364
2.24428e-05
0.00517601
1.37083e-05
0.00519511
2.20531e-05
0.00524407
2.56135e-06
0.00539439
-3.93123e-05
0.00548572
-3.3057e-05
0.00549702
-2.64683e-05
0.00548979
-2.66558e-05
0.00548082
-4.15702e-05
0.00547156
-5.25861e-05
0.00546641
-5.15677e-05
0.005466
-7.03217e-05
0.00536213
-1.53291e-05
0.00524925
1.27564e-05
0.0050637
0.000100544
0.00500461
-2.56258e-05
0.00521738
-2.36386e-05
0.006033
-0.00024513
0.00610767
-1.35139e-05
0.00313002
-0.000355313
9.07901e-05
0.000123163
2.74579e-05
5.40617e-05
0.000389238
0.00011109
0.000368112
0.000112353
0.00022294
0.000105293
6.91938e-06
8.03236e-05
6.09884e-05
0.00525166
-2.03067e-07
0.00525492
-1.4382e-06
0.00527138
-1.53079e-05
0.00527808
1.22646e-05
0.00526277
2.15208e-06
0.00523556
-4.93337e-06
0.00523772
-1.17598e-05
0.00522206
1.73246e-05
0.0052478
1.74243e-05
0.0052464
-5.14175e-05
0.00521388
2.46906e-05
0.00524553
1.56984e-05
0.00520498
2.36799e-06
0.0051851
-1.99883e-05
0.00525909
-3.83074e-05
0.00540812
-2.88034e-05
0.00544507
3.03727e-05
0.00534748
3.38862e-05
0.00534774
2.13517e-05
0.00531794
2.66879e-05
0.00530688
1.87138e-05
0.00528226
1.65563e-05
0.00521998
7.5732e-06
0.00519415
5.97061e-05
0.00521303
5.36403e-06
0.00523015
-3.45632e-05
0.00530142
-9.77251e-05
0.00534718
-5.52519e-05
0.00541041
-6.42137e-05
0.00546182
-6.8345e-05
0.00545791
-9.41235e-05
0.00544615
-0.000100997
0.00534118
-4.53375e-05
0.00538573
-6.49402e-05
0.00543186
-3.42175e-05
0.00561644
-1.61751e-05
0.00561907
-1.63e-06
0.00566021
-7.45898e-05
0.00552183
-0.000145659
0.00521113
-6.37879e-05
0.00121019
-0.00036061
7.32019e-05
-0.000282653
7.41988e-05
2.8618e-05
0.000363646
0.000182499
0.000359523
0.000236081
0.000219607
0.00024801
6.49493e-06
0.000243077
0.000226328
0.00524899
3.17005e-09
0.0052459
9.94676e-07
0.00524407
-4.22325e-06
0.00523657
1.60742e-05
0.00525637
-2.64331e-07
0.00523254
-7.25525e-07
0.00521221
-6.24437e-08
0.00525163
2.36089e-07
0.00521374
-0.00011212
0.00519336
-3.14055e-05
0.00522826
-3.88025e-05
0.00524993
-3.68756e-05
0.00535964
4.30712e-06
0.00550383
4.32493e-05
0.00531456
4.29815e-05
0.00537537
1.45885e-05
0.0050849
-2.20301e-05
0.00515618
-4.83043e-05
0.00520695
-2.67645e-05
0.0052855
4.81817e-07
0.00534089
-1.96584e-06
0.00537754
-9.95716e-06
0.00540398
1.15485e-05
0.00541373
1.71819e-05
0.00532534
1.41827e-05
0.00512167
-2.812e-05
0.004863
4.49133e-06
0.00486094
-2.49241e-05
0.00500659
-8.13732e-05
0.00522502
-7.50565e-05
0.00529278
-7.95971e-05
0.00536838
-9.99378e-05
0.00535009
-3.72903e-05
0.00529884
-5.61987e-05
0.00538033
-7.15742e-05
0.00547071
-7.32811e-05
0.00566923
-0.000140394
0.00582993
-0.000174885
0.00578931
-9.33506e-05
0.00560266
-0.00023855
0.00204808
-0.00014769
0.000319973
0.000107206
0.000309891
-0.000165536
0.000418019
0.00025767
0.000395992
0.000363234
0.000257118
0.000395812
1.05045e-05
0.00042153
0.00041707
0.00525047
-1.94812e-08
0.00525483
-6.54899e-07
0.00524982
2.34047e-06
0.00526381
2.1211e-06
0.00526246
1.11136e-06
0.00526022
-4.13388e-06
0.00529254
-6.76214e-06
0.00528561
7.15714e-05
0.00532574
1.89669e-05
0.00536606
2.53363e-05
0.00527839
2.11232e-05
0.005199
1.69955e-05
0.00519489
-4.27712e-05
0.00511941
-6.30756e-05
0.00525966
-6.07091e-05
0.00535527
-2.43048e-06
0.00533195
3.10865e-05
0.00527269
2.21861e-05
0.00525394
2.42236e-06
0.00528967
-1.46056e-05
0.005329
-3.61151e-05
0.00535619
-3.7875e-05
0.00536683
-4.55613e-05
0.00534305
-3.27687e-05
0.00525923
-2.4884e-05
0.00502609
5.06108e-05
0.00492863
-2.91055e-05
0.00504137
-5.63953e-05
0.00515053
-4.43925e-05
0.00516586
4.72913e-05
0.00512466
-7.28105e-06
0.00517751
-4.72042e-05
0.00529902
-3.93015e-05
0.00538186
-2.18649e-05
0.0054078
-3.0362e-05
0.00538819
-6.59238e-05
0.00530075
-0.000156813
0.00531805
-0.000249837
0.00553831
-0.000286899
0.00506081
-0.000211247
0.00280449
-0.000285462
0.000834208
0.000339327
0.000717433
-0.000200904
0.000608385
0.000366655
0.000493264
0.000521949
0.000310491
0.000575016
1.51891e-05
0.000606469
0.000613483
0.00524957
3.88279e-08
0.00524648
1.96795e-07
0.00524964
-2.79947e-06
0.00525625
7.6311e-07
0.0052506
-1.2499e-07
0.00524448
1.09699e-05
0.00523397
1.68993e-05
0.00522982
9.50078e-06
0.00517309
1.29077e-05
0.00514527
1.17453e-05
0.00519551
-2.13931e-05
0.00534397
8.73663e-06
0.00528986
-2.12086e-05
0.00520601
5.08818e-05
0.00518753
1.96392e-05
0.00515225
6.34009e-05
0.00524696
4.74302e-06
0.0052215
8.26252e-05
0.00526432
-1.19451e-05
0.00528308
-1.57087e-05
0.00530818
-5.2301e-05
0.00527764
-2.12004e-05
0.00523051
-4.78054e-05
0.0052311
-4.41029e-05
0.00539984
-2.52335e-05
0.00570177
3.75908e-05
0.00557893
0.000100418
0.00544186
6.89871e-05
0.00509817
-6.40342e-06
0.00499287
1.50434e-05
0.00497036
1.12429e-05
0.0049765
-3.98076e-06
0.00516072
-3.46208e-05
0.0053121
-3.24656e-05
0.00542629
-4.30818e-05
0.00541007
-7.0057e-05
0.00516141
-0.000117739
0.00494784
-0.000216119
0.00493655
-0.00020896
0.00461604
-0.00013608
0.00289294
-0.000169321
0.00134082
0.000289089
0.00126728
7.86482e-05
0.00087771
0.000586555
0.00061659
0.000749048
0.000380627
0.000819597
2.17686e-05
0.000829185
0.000837496
0.00525057
-5.03506e-08
0.0052541
-7.54334e-07
0.00525015
2.75867e-06
0.00524764
3.64991e-06
0.00525164
-1.49449e-06
0.00526384
-5.57397e-06
0.0052595
-8.35867e-06
0.00525659
2.48665e-05
0.00523436
9.48629e-07
0.00521974
1.51569e-05
0.00520219
3.0714e-05
0.00521347
7.54866e-06
0.00519171
-1.46564e-05
0.00526839
9.58544e-06
0.00532796
1.39646e-05
0.00533066
0.000193258
0.00535452
1.86008e-05
0.00534103
1.75296e-05
0.00517358
-1.48979e-06
0.00497514
-3.15584e-05
0.0048426
-3.09152e-05
0.00493194
-3.46531e-05
0.00503203
-2.39962e-05
0.00517751
-3.09586e-05
0.00527338
-3.93171e-05
0.00548128
-3.71877e-05
0.00550676
-2.99857e-05
0.00539941
-4.33441e-05
0.00511859
1.47313e-05
0.0049614
-1.3763e-05
0.00496767
-6.30651e-06
0.00499847
4.38231e-05
0.00508876
-1.12866e-05
0.00520564
4.91948e-06
0.00540291
-5.56001e-05
0.00538683
-5.26639e-05
0.00518477
-8.45077e-05
0.00490236
-0.000137262
0.00495754
-0.000219167
0.00486701
-8.42316e-05
0.00362561
-6.53114e-05
0.00172336
0.000608882
0.00176137
0.00074259
0.00119846
0.000968664
0.000723633
0.00101995
0.000404044
0.0010801
1.88315e-05
0.00109526
0.00109007
0.00524966
2.52695e-08
0.00524562
1.21729e-06
0.00525132
-2.9501e-06
0.00523714
2.97669e-05
0.00524007
-1.03329e-07
0.0052065
1.28306e-06
0.00521959
-3.97575e-05
0.00520128
-7.81036e-06
0.00525186
-1.71522e-05
0.00524216
2.95617e-05
0.00523426
-1.45221e-06
0.00527162
1.95657e-05
0.00513214
-2.06171e-06
0.00523106
-1.06024e-05
0.00534729
-6.89278e-06
0.00516863
2.39153e-05
0.00514501
-1.9807e-05
0.00515683
-6.73133e-05
0.00517355
-7.21407e-05
0.00508269
-6.74073e-05
0.0051295
-7.32199e-05
0.00523284
-7.47855e-05
0.00541449
-2.83506e-05
0.00544744
2.13474e-05
0.00546514
2.24988e-05
0.00533448
6.7442e-07
0.00527505
-1.99113e-05
0.00515419
6.66929e-06
0.00511914
6.75173e-07
0.00502143
1.6557e-06
0.00494109
6.51435e-06
0.00493143
-1.26032e-05
0.00497704
3.08823e-05
0.00521409
6.59662e-06
0.00535737
-1.80367e-05
0.0054121
-2.20427e-05
0.00528936
4.43852e-05
0.0048566
-1.03297e-06
0.00437864
-3.16121e-05
0.0038409
1.67256e-05
0.00293474
-8.75179e-05
0.00190558
0.000854267
0.00215511
0.0015909
0.00150902
0.00149925
0.000838057
0.00134055
0.000437467
0.00135408
2.19884e-05
0.00139776
0.00137191
0.00525039
-8.49144e-09
0.00525443
-7.48056e-07
0.00524667
2.954e-06
0.00526096
4.53147e-06
0.00526021
-9.00331e-06
0.00528604
-4.23299e-06
0.00527098
-1.05156e-05
0.0052804
7.46317e-05
0.00528515
-9.46599e-06
0.00527776
3.69388e-06
0.00527062
1.70369e-08
0.00526376
5.56967e-06
0.00527807
9.4465e-05
0.00535785
-3.84614e-05
0.00534854
-3.11133e-05
0.00529161
-2.05525e-05
0.00526754
1.77528e-05
0.00526305
1.05663e-06
0.00539483
-0.000171636
0.00535049
7.6114e-06
0.00529982
5.51917e-06
0.00531235
-1.7463e-05
0.00533229
-4.11648e-06
0.00544237
1.15853e-05
0.00545775
-3.84016e-05
0.00533773
6.86113e-06
0.00520798
1.2376e-06
0.00514114
-6.30742e-07
0.00504014
-9.19018e-06
0.00501412
4.29767e-05
0.00505138
-3.81626e-06
0.00505349
5.35503e-05
0.00515235
1.97842e-05
0.00524972
1.77821e-05
0.00538096
1.40714e-05
0.00545391
7.27362e-06
0.00527105
0.000110701
0.00471632
5.74128e-05
0.00419666
7.15281e-05
0.00382435
1.5827e-05
0.0030613
-5.80982e-05
0.0017977
0.00120907
0.00213608
0.00247831
0.00153535
0.00205541
0.000920053
0.00166146
0.00050147
0.00164389
6.58102e-05
0.00169066
0.0016485
0.0052494
-2.01738e-08
0.00524501
6.31181e-07
0.00524899
-3.00896e-06
0.00525407
-1.466e-06
0.00525005
7.59569e-07
0.00522903
1.00303e-05
0.00522464
1.52276e-05
0.0052081
1.79152e-06
0.00521365
1.20872e-05
0.00524986
-3.46047e-05
0.00524456
-2.57034e-05
0.00525053
-4.28704e-05
0.0052372
7.56461e-06
0.00517822
2.02475e-05
0.00516035
2.72108e-05
0.00520657
2.48434e-05
0.00527723
4.99443e-06
0.00528887
8.6856e-06
0.00514179
-1.14684e-05
0.00513534
8.97503e-05
0.00518814
0.000130106
0.00537831
-1.10512e-05
0.00530822
1.91651e-05
0.0053187
-1.63565e-05
0.00527505
-5.19704e-05
0.00526199
-1.16987e-05
0.00527774
-1.26096e-05
0.00533485
-3.06888e-05
0.00533352
-4.78092e-05
0.00531247
4.74985e-05
0.00520849
5.95843e-05
0.00522109
6.36873e-05
0.00520639
2.90135e-05
0.00524364
2.50472e-05
0.00527568
1.71427e-05
0.00521287
4.04094e-05
0.00505964
0.000124346
0.00457567
0.000129928
0.00403687
0.000112261
0.00374579
-8.96352e-05
0.00284458
3.34018e-05
0.00174688
0.0012827
0.00217969
0.00307872
0.00165139
0.00254904
0.00116992
0.0020353
0.000720252
0.00201099
0.000145573
0.00203114
0.00191946
0.00525083
8.05271e-08
0.00525574
-1.24417e-06
0.00525118
3.17717e-06
0.00524674
1.89334e-06
0.00525401
-1.60809e-06
0.00526037
-9.95846e-06
0.00520284
-1.29119e-05
0.00524663
1.40522e-06
0.00534382
9.21556e-06
0.00529367
2.0838e-05
0.00516005
1.49863e-06
0.00522525
-0.000120616
0.00517319
-1.06837e-05
0.00521258
1.92184e-06
0.00518877
7.1711e-05
0.00520891
4.11626e-05
0.00521009
1.04246e-05
0.00515263
4.77483e-05
0.00500221
6.56709e-05
0.00491847
0.000117912
0.0049555
0.000133238
0.00491368
8.53113e-05
0.00497664
4.22835e-05
0.00503316
-1.85353e-05
0.00508442
-4.0852e-05
0.00517226
-3.464e-05
0.0052572
-2.5571e-05
0.0053059
-2.35126e-05
0.0053439
3.30012e-06
0.00535106
3.30148e-05
0.00523982
4.86065e-05
0.00513809
6.18036e-05
0.00507953
6.82188e-05
0.00507301
6.33005e-05
0.00510864
3.28706e-05
0.00515297
3.2369e-05
0.00498992
0.000154449
0.00451569
0.000200963
0.00418657
0.000221605
0.00373746
0.000118533
0.0029569
0.000192655
0.00192349
0.0013272
0.00204955
0.00344566
0.00170427
0.00296015
0.00138381
0.00245419
0.000853367
0.00241967
0.00018196
0.0023501
0.00216315
0.00524916
-4.6337e-08
0.00524405
1.25085e-06
0.00524899
-3.83057e-06
0.00525589
-1.93051e-06
0.0052519
1.16487e-05
0.00524593
4.69111e-06
0.00526543
7.67617e-06
0.00524605
1.50649e-06
0.00520936
-6.81518e-06
0.00516478
-1.20968e-05
0.00536687
2.77038e-06
0.0053299
-6.93783e-07
0.00539132
2.26397e-05
0.00530528
3.4857e-05
0.00534521
3.72671e-05
0.00534487
3.56976e-05
0.00521992
2.81719e-05
0.00513032
8.56005e-05
0.00509786
2.43353e-05
0.00511772
8.11543e-05
0.00516967
8.71109e-05
0.00516136
8.65341e-05
0.00513212
2.70823e-05
0.00506484
-7.1895e-06
0.00503363
-1.76138e-05
0.00505876
1.11845e-05
0.00520434
-2.54224e-05
0.00530726
-2.15302e-05
0.00537103
1.60795e-05
0.00540946
2.23783e-05
0.00537997
2.06864e-05
0.00538254
4.36758e-06
0.00541635
1.42273e-05
0.00537843
0.000141372
0.00531362
0.000148192
0.005444
4.94306e-05
0.00553542
0.000150284
0.00543242
0.000180305
0.00505184
0.000351629
0.00454455
0.000348213
0.00392813
0.00018621
0.00283995
0.000796044
0.00246357
0.00388501
0.00204207
0.00375448
0.00166454
0.00307045
0.000940808
0.00284351
0.000142266
0.00268355
0.00240986
0.00525124
1.39082e-07
0.00525888
-4.30769e-06
0.00525171
4.00983e-06
0.00524355
1.45729e-06
0.00523928
-3.60928e-06
0.00525502
-7.32274e-06
0.00526082
-1.50847e-05
0.00527422
-7.74242e-06
0.00528133
7.21709e-06
0.00520287
3.4921e-05
0.0051833
3.08784e-05
0.00516393
2.15576e-05
0.00523973
3.43107e-06
0.00523197
1.24085e-05
0.00528382
7.87721e-06
0.00535597
-2.51929e-05
0.00541827
1.21203e-05
0.00534158
3.03891e-05
0.00533247
2.06505e-05
0.00551301
-4.30024e-05
0.00557939
-5.36778e-05
0.00560106
-2.50855e-05
0.00534197
1.14742e-05
0.00512632
2.1457e-05
0.00505017
7.9462e-06
0.00508055
7.99161e-06
0.00515538
-9.03405e-06
0.0052883
-2.15419e-05
0.00538423
2.15153e-05
0.00541178
2.30134e-05
0.0054215
5.74155e-05
0.00539539
6.29387e-05
0.0053925
-8.85592e-06
0.00544096
2.45924e-05
0.00558048
1.71268e-05
0.00555812
3.72013e-05
0.00561921
7.20809e-05
0.0056565
0.000121674
0.0057932
0.000204659
0.00574093
0.000284809
0.00525536
0.000261206
0.00389882
3.83907e-05
0.00304344
0.00390048
0.00261307
0.00466231
0.00197515
0.00382585
0.000980653
0.00331668
0.000139029
0.00305937
0.00281107
0.00524926
-3.69956e-07
0.00524512
-1.03218e-07
0.00524969
-3.26771e-06
0.00526342
-1.58649e-06
0.00525331
-1.96733e-06
0.00525824
9.36975e-06
0.00521185
1.86951e-05
0.00521023
4.97223e-06
0.00523094
-1.87051e-05
0.00524592
-2.95448e-05
0.00523693
-2.34853e-05
0.00522767
5.88157e-06
0.00523556
1.93166e-05
0.00527534
2.73648e-05
0.00527894
3.757e-08
0.00525111
-1.59515e-05
0.00519992
-8.06219e-06
0.00535514
1.09009e-05
0.00554765
-3.88227e-05
0.00561779
-8.62253e-05
0.00562276
-0.000115848
0.0055279
-9.61242e-05
0.00525988
-4.64511e-05
0.00516209
1.00221e-05
0.0051609
3.73792e-07
0.00512064
3.41838e-05
0.00508453
2.38441e-05
0.0050722
2.90111e-05
0.00509813
5.43429e-05
0.00524557
-2.57094e-05
0.00545684
-1.90496e-05
0.00559738
-4.14198e-05
0.00560364
-7.44201e-05
0.00559647
-4.41595e-05
0.00551644
-3.08147e-05
0.00550207
-1.77202e-05
0.00558306
9.25422e-06
0.00567893
3.35127e-05
0.00585034
1.30347e-05
0.00610648
5.58265e-05
0.0060002
0.000183547
0.00453605
3.29469e-06
0.00357538
0.00320944
0.00312765
0.00540745
0.0020967
0.00459066
0.000868118
0.00384203
7.03811e-05
0.0035093
0.00334319
0.00525031
5.23419e-07
0.00524953
6.98507e-07
0.00524395
3.20076e-06
0.00522149
3.77353e-06
0.00522482
6.77232e-06
0.00519232
-1.41979e-05
0.00525191
-2.52735e-05
0.00532938
-1.80079e-05
0.00536599
6.06636e-05
0.00530307
6.56409e-06
0.00523866
1.63601e-05
0.00516377
-7.61355e-06
0.00521448
-4.94181e-05
0.00529598
-5.53818e-05
0.00529699
-4.11815e-05
0.00525011
-1.82695e-05
0.00521489
7.10099e-06
0.00526454
3.08307e-06
0.00524163
-1.2409e-05
0.00525188
1.28698e-05
0.00524731
-7.35976e-05
0.00526986
2.10333e-05
0.00523653
-0.000241264
0.00539541
2.18889e-05
0.00538683
3.05518e-05
0.00530362
5.69458e-05
0.00510428
2.02299e-05
0.00515097
9.08608e-06
0.00526282
-1.96529e-05
0.00542214
-3.78591e-05
0.00546298
-3.09536e-06
0.00544937
-3.12438e-05
0.00533075
-2.89334e-05
0.00527081
-2.68637e-05
0.0052723
-3.88538e-05
0.00527661
-3.33291e-05
0.005263
-1.37433e-05
0.00531219
-1.42425e-05
0.00534609
-4.10815e-05
0.00533452
1.7478e-05
0.00524073
5.33605e-05
0.00403567
0.000163352
0.00378164
0.00152595
0.00330137
0.00564919
0.0022503
0.00509756
0.0011611
0.0044114
0.000425441
0.00420468
0.00410916
0.00524975
-6.05728e-07
0.00525293
-7.46823e-07
0.00525677
-3.14367e-06
0.00529941
-4.3426e-06
0.00530866
-7.47222e-06
0.00535709
1.61851e-05
0.00525574
2.86496e-05
0.00524384
2.23106e-05
0.00506166
-3.34922e-05
0.0051806
-3.56943e-05
0.00525955
-4.8846e-06
0.00540918
-1.02392e-05
0.00527363
-1.28692e-05
0.00507503
-5.25303e-06
0.00511522
-5.02797e-06
0.0051502
-3.6661e-05
0.00521167
-5.0056e-05
0.00505372
-6.64927e-05
0.0046984
-2.46818e-05
0.00445524
-1.28476e-05
0.0045183
3.10514e-05
0.00476737
4.2119e-05
0.00520098
4.42967e-05
0.00545826
4.70332e-05
0.00550191
4.66103e-05
0.00550278
7.85836e-05
0.00543944
0.000100987
0.00539072
4.84385e-05
0.00540843
2.73032e-06
0.00540289
-5.92594e-05
0.00535594
-2.3156e-05
0.0052087
-5.26586e-05
0.00512685
-4.54185e-05
0.00515006
-5.62738e-05
0.00515967
-3.60263e-05
0.00521021
-7.05043e-05
0.00530531
-6.18918e-05
0.00537794
-4.82647e-05
0.00536478
-4.71184e-05
0.00537952
-3.24631e-05
0.0051806
3.48003e-05
0.00471019
7.40961e-05
0.0039593
7.75954e-05
0.00366684
0.00459055
0.00276136
0.00587903
0.00197783
0.00532957
0.00123437
0.00512413
0.00533267
0.00525034
5.97309e-07
0.00524733
7.35673e-07
0.00524355
3.21496e-06
0.00520756
5.30442e-06
0.00520466
6.95194e-06
0.00517911
5.21051e-05
0.00523499
-2.53505e-05
0.00533916
-2.084e-05
0.00533226
2.13159e-05
0.00525781
2.22163e-05
0.00525792
-9.20035e-06
0.00527145
-2.25708e-05
0.005144
-2.2936e-05
0.00519571
-2.46209e-05
0.00531826
-2.09368e-05
0.00544862
0.000143172
0.00548615
-1.90513e-06
0.00538929
-2.34784e-05
0.00524769
1.5522e-05
0.00512087
7.4162e-05
0.00506954
7.96619e-05
0.00515618
7.60364e-05
0.0052984
4.57155e-05
0.00541856
4.23429e-05
0.00536386
3.64129e-05
0.00536569
3.93877e-05
0.00540728
2.58758e-05
0.00540975
1.38335e-05
0.00537038
-2.23003e-05
0.00533372
-3.8967e-05
0.00522547
-1.6592e-05
0.00511277
-3.49276e-05
0.00501461
-4.36706e-05
0.00501545
-6.98863e-05
0.00509397
-5.15979e-05
0.00521467
-7.81831e-05
0.0053638
-4.64745e-05
0.00551811
-4.88833e-05
0.00562163
-4.49218e-05
0.0055334
7.2434e-05
0.00533312
0.000107077
0.00476513
6.25491e-05
0.00370895
8.41118e-05
0.00446349
0.00265389
0.004183
0.00663714
0.00345828
0.00670566
0.00205528
0.00670064
0.00718843
0.00524975
-5.08426e-07
0.00525192
-1.44524e-06
0.00525794
-3.62518e-06
0.00529092
-4.00057e-06
0.0053054
-4.97626e-06
0.00530183
-1.98502e-05
0.00525465
2.35127e-05
0.00527038
-3.70995e-05
0.00518814
-3.25608e-05
0.00521327
-2.17949e-05
0.00521082
-2.17445e-05
0.0051754
-1.86939e-06
0.00521084
2.04597e-05
0.00526779
5.00431e-05
0.00530397
9.62037e-05
0.00537562
5.27507e-05
0.00533168
2.09018e-05
0.00535378
-2.39232e-05
0.00544853
-1.81487e-05
0.00552138
1.35217e-05
0.00557571
2.60223e-05
0.00559037
2.95303e-05
0.00553544
-2.44416e-05
0.0053678
9.67207e-06
0.00526142
1.95487e-05
0.00525557
-1.33739e-05
0.00529948
-4.75748e-06
0.00528202
2.00501e-05
0.00531954
-2.46337e-05
0.00526833
-1.97149e-05
0.00522752
-3.73608e-05
0.00506625
-4.80682e-05
0.00495393
-4.99333e-05
0.00489397
-3.44269e-05
0.00496075
-2.65292e-05
0.00509668
-3.46611e-05
0.00529911
-5.06446e-05
0.00541738
3.17709e-06
0.00540695
9.06131e-06
0.00535452
9.63201e-05
0.00519868
7.82517e-05
0.00491568
2.22667e-05
0.00421203
7.3033e-05
0.00436093
0.000616951
0.00468773
0.00661774
0.00456757
0.007308
0.0040147
0.00735385
0.00642497
0.00472153
0.0052498
2.66416e-07
0.00525434
-5.34521e-06
0.00524924
4.29355e-06
0.00522443
1.32259e-06
0.00522879
-1.82431e-07
0.00521781
-1.00762e-05
0.00525983
-1.68847e-05
0.00526508
-3.1146e-06
0.00533243
3.07461e-05
0.00534551
8.15726e-06
0.0052933
1.9325e-05
0.00525435
2.09679e-05
0.0052556
-1.17693e-05
0.00529603
-8.53684e-07
0.00532556
-5.32137e-06
0.0053217
-4.86786e-06
0.00529003
-1.92413e-05
0.00528569
-2.90515e-05
0.00524814
-1.25722e-05
0.00526938
1.35373e-06
0.00540109
-0.00010093
0.00536999
9.19636e-06
0.00531756
-7.85823e-05
0.00530308
-4.26273e-05
0.00529591
-4.25653e-05
0.00529332
-4.12536e-05
0.00529495
-4.13179e-05
0.00536263
-6.04076e-05
0.00543101
-5.89194e-05
0.00544779
-5.05483e-05
0.00541875
-4.5804e-05
0.00522601
-3.57157e-05
0.00493691
-3.47726e-05
0.00479666
-4.54306e-05
0.00477083
-4.56634e-05
0.00490409
-1.773e-05
0.00514527
1.52893e-05
0.00537251
2.1781e-05
0.00543733
5.14011e-05
0.00535132
9.14709e-05
0.00519723
8.78983e-05
0.00506825
3.27589e-05
0.00485791
6.3622e-05
0.00372705
0.000219074
0.00617017
0.00389586
0.00605967
0.00747659
0.00549554
0.00803917
0.00662869
0.00514756
0.00525007
-6.08125e-08
0.00524085
1.6002e-06
0.0052452
-4.64093e-06
0.00525902
-6.75425e-07
0.00524903
2.95558e-06
0.00524056
4.96399e-06
0.00525038
1.78535e-05
0.00526318
-2.1802e-05
0.00518554
-2.11632e-06
0.00517003
-1.89176e-05
0.00524008
-1.06845e-05
0.00532688
1.08087e-05
0.00539325
9.6173e-06
0.00529815
-9.76957e-06
0.00527207
-1.39511e-06
0.00531626
-7.99826e-05
0.00525539
5.85558e-06
0.00511307
-1.28671e-05
0.00495787
-9.67832e-06
0.004917
-2.51937e-05
0.00495989
-3.30761e-05
0.00510191
-2.07407e-05
0.00543081
-4.37745e-05
0.00577489
-4.85781e-05
0.0056003
1.0477e-05
0.00548708
-6.09773e-06
0.00534818
-5.12897e-06
0.00514656
1.284e-05
0.00509131
-4.36834e-06
0.00506461
2.66744e-06
0.00514157
-8.36879e-05
0.0051635
-3.3901e-05
0.00506502
1.99923e-06
0.00490197
4.76561e-05
0.0048982
4.83344e-05
0.00514121
1.93407e-05
0.0053704
2.54553e-05
0.00547416
3.86379e-05
0.00553621
5.7892e-05
0.0055371
8.08547e-05
0.00547457
9.75199e-05
0.00535309
5.16216e-05
0.00527402
6.62208e-05
0.00473012
8.74133e-05
0.00550701
0.000395108
0.00678758
0.0052891
0.00702321
0.00768997
0.0071599
0.00643175
0.00525171
6.26737e-09
0.00525806
-1.25187e-06
0.00525151
3.96275e-06
0.00524333
4.29678e-06
0.00524331
1.61704e-06
0.00525802
-5.03677e-06
0.00527354
-1.75675e-05
0.00523524
-1.6886e-05
0.00526929
2.09569e-06
0.00525008
-6.66901e-06
0.00523762
1.46034e-05
0.00526682
-1.59857e-05
0.005243
-2.5276e-05
0.00527087
-2.50045e-05
0.00524265
-2.83174e-05
0.00516283
-2.0992e-05
0.00517768
1.08691e-05
0.00522509
1.89312e-06
0.00523743
2.03213e-05
0.00520888
1.95311e-05
0.00527444
3.14559e-06
0.00529788
5.11175e-05
0.00522234
-7.68257e-06
0.00539496
-0.000135183
0.00535073
3.1631e-06
0.00525767
7.35846e-06
0.00505543
-4.56133e-05
0.00466793
2.41719e-05
0.00460842
6.15564e-05
0.00474406
-3.4794e-05
0.00494631
-1.23379e-05
0.00511039
4.67006e-05
0.00514322
8.27127e-05
0.00526828
7.18146e-05
0.00536345
5.9066e-05
0.00550945
6.2281e-05
0.00558434
5.53227e-05
0.00563317
6.03954e-05
0.00554762
4.93194e-05
0.00552217
4.88383e-05
0.0054982
3.14841e-05
0.00558869
-9.85266e-06
0.00544834
-3.47728e-06
0.00509094
3.93568e-05
0.00443478
0.00011498
0.00635008
0.00172713
0.00768633
0.00626098
0.00716254
0.00768505
0.00524874
-1.00447e-08
0.0052445
1.01019e-06
0.0052516
-3.87281e-06
0.00523716
1.28449e-05
0.00523513
2.12211e-05
0.00524616
5.07185e-06
0.00522237
1.2526e-05
0.0052373
1.16745e-05
0.00521149
-8.80189e-06
0.00521479
-6.64048e-06
0.00521888
-7.43305e-06
0.00529466
1.99835e-05
0.00522243
-1.29338e-05
0.00527441
1.99281e-05
0.00523142
7.62346e-06
0.00518134
2.99183e-05
0.00520842
2.46738e-05
0.00525068
-1.37145e-06
0.00533027
6.79222e-06
0.00539938
-7.20473e-06
0.00544746
-3.16936e-05
0.00545192
-3.1416e-05
0.00525277
-7.66123e-05
0.00500759
-5.26454e-05
0.00500261
-4.83932e-05
0.00504886
-4.50079e-05
0.00514652
3.37965e-05
0.00523958
3.21258e-05
0.0052275
5.153e-05
0.00510434
5.19611e-05
0.0050546
9.66417e-05
0.00513655
3.40029e-05
0.00518473
7.83136e-05
0.00525362
7.26429e-05
0.00534252
5.45701e-05
0.00545852
5.43586e-05
0.00557374
1.70442e-05
0.00558195
1.67703e-05
0.00556426
6.22251e-06
0.00548463
6.0915e-07
0.00542937
-1.85939e-05
0.00532224
-3.61981e-06
0.00532156
-3.62021e-05
0.00565789
-0.000152954
0.00585864
-0.00020158
0.00589594
0.000117907
0.00839049
0.00229706
0.00555093
0.00990558
0.00525052
-2.57451e-08
0.00525331
-3.89074e-07
0.00524715
2.92481e-06
0.00526035
5.74691e-06
0.00525737
6.42395e-06
0.00526228
-7.11862e-06
0.00528248
-7.46627e-06
0.00530646
-2.03918e-05
0.00527244
1.72509e-05
0.0053032
1.63383e-05
0.00534182
-3.45839e-05
0.00519807
1.03849e-05
0.00523655
1.03677e-05
0.00526783
1.30751e-05
0.00534261
2.86764e-05
0.00532063
3.70979e-05
0.00529753
3.21412e-05
0.00526494
1.79899e-05
0.00526603
1.12898e-05
0.00528615
-1.90872e-07
0.0052883
-2.62354e-05
0.00535769
-7.61662e-05
0.00545026
-0.000100137
0.00550407
-6.69182e-05
0.00549809
-6.29173e-05
0.00546857
-4.62646e-05
0.00551949
2.67765e-05
0.00556673
-3.85817e-05
0.00554986
-1.59102e-05
0.00546083
1.67343e-05
0.00529955
2.93119e-05
0.0052262
3.10025e-05
0.00523005
2.36238e-05
0.00530825
1.78156e-05
0.0054229
1.16102e-05
0.00560223
2.21736e-05
0.00569322
1.26002e-06
0.00565205
-8.09133e-06
0.00555755
-3.21703e-05
0.00541985
-4.05965e-05
0.00531078
-5.55277e-05
0.00533296
-4.75778e-05
0.00541605
-8.10375e-05
0.00553462
-0.00010447
0.00556454
-0.000165357
0.00546944
-0.000146698
0.00597131
0.00012457
0.00182631
0.00826611
0.0052498
5.90393e-08
0.0052471
1.00989e-09
0.0052495
-2.24322e-06
0.00526218
-2.17792e-06
0.00524809
3.24042e-05
0.00524681
4.95955e-06
0.00522014
4.42664e-06
0.0051212
1.33584e-05
0.00516855
7.76454e-06
0.00518161
-1.79547e-05
0.00521387
-1.72955e-05
0.00523341
2.39947e-05
0.00516131
2.95295e-05
0.00517065
2.20416e-07
0.0052142
8.72084e-06
0.00524833
-4.36215e-05
0.00521159
-1.02877e-05
0.00512606
-3.39667e-05
0.0051003
-3.11407e-05
0.00508231
-1.38491e-05
0.00508771
1.07443e-05
0.00518113
-2.51685e-05
0.00548219
-6.81149e-05
0.0057417
-9.37789e-05
0.00581759
-7.79101e-05
0.00582211
-7.0024e-05
0.00574363
-4.81146e-05
0.00558361
-9.16228e-05
0.00548736
-5.16892e-05
0.0054076
-2.32633e-05
0.00533519
1.26022e-05
0.00521736
-2.35676e-06
0.00520157
-3.65014e-05
0.00534974
-1.62893e-05
0.00542681
8.45702e-06
0.00549385
6.49385e-06
0.00548211
-2.71362e-05
0.00548939
-6.38487e-05
0.00552515
-9.39259e-05
0.00549561
-0.000103686
0.00542088
-6.6343e-05
0.00540441
-6.95164e-05
0.00536969
-7.9583e-05
0.00531598
-6.5112e-05
0.00523269
-6.68151e-05
0.0051745
-3.9255e-05
0.00498884
-7.85852e-05
0.00020394
0.00550584
0.00525029
-4.8424e-08
0.0052526
-1.30976e-07
0.00525033
1.90711e-06
0.00524246
2.41867e-06
0.00525794
3.72658e-06
0.00524132
5.24535e-06
0.00528673
-1.4199e-05
0.00535962
-9.33344e-06
0.00528571
3.23083e-08
0.00530398
-4.94061e-06
0.00523371
1.9081e-05
0.00523063
1.7902e-05
0.00524027
2.42874e-05
0.00528046
-4.09505e-05
0.00529985
-2.86332e-05
0.00529512
-4.72584e-05
0.00534858
-3.54904e-05
0.00533618
-3.5405e-05
0.00516217
-1.26018e-05
0.00500504
-3.64663e-06
0.0049434
3.71315e-05
0.00493836
7.54894e-06
0.00487752
-4.17895e-05
0.00493221
-4.47974e-05
0.00507852
-3.11768e-05
0.00527387
-3.94418e-05
0.00542388
-7.05512e-05
0.00542862
-6.16021e-05
0.00537418
-4.86137e-05
0.00529044
-2.53067e-05
0.00526286
-3.30626e-05
0.00525576
-2.15898e-05
0.00524701
-4.69712e-05
0.00525146
-7.02868e-05
0.00531649
-4.50794e-05
0.00534504
-1.72198e-05
0.00538018
-3.45734e-05
0.00538343
-6.61546e-05
0.00531733
-0.000109477
0.00524258
-0.000114671
0.00527228
-0.000130119
0.00530684
-0.000104746
0.00532453
-7.67906e-05
0.00524416
-7.64244e-05
0.00503232
-8.92275e-05
0.00483401
-3.98233e-05
0.00480875
-6.65306e-05
3.10982e-05
0.00502821
0.00524977
4.23606e-08
0.00524781
2.14834e-07
0.00524975
-1.66069e-06
0.0052595
-2.76983e-06
0.00523819
3.32337e-05
0.00524271
1.08226e-06
0.00520505
1.87426e-05
0.0051957
1.86034e-05
0.00521068
2.03396e-05
0.00522202
-1.29724e-05
0.00519803
-2.0711e-05
0.00522722
-8.36877e-06
0.00522789
2.19205e-05
0.00532772
3.70808e-05
0.00531645
1.2541e-05
0.00534247
-3.21183e-05
0.00532109
1.31978e-05
0.00532362
1.83771e-05
0.00523867
-4.05196e-05
0.00518158
-4.81537e-05
0.00510068
-4.17744e-05
0.00501597
-6.1662e-05
0.00475257
-4.35147e-05
0.00447377
3.56326e-05
0.0045621
-3.23729e-05
0.00499859
2.1405e-05
0.00538036
3.93428e-05
0.00547343
1.39146e-06
0.00543507
2.80368e-05
0.00539108
9.56973e-06
0.00529434
-1.01666e-05
0.00524132
-4.32711e-05
0.00518417
-4.99617e-05
0.0051539
-4.61014e-05
0.00524513
-2.63314e-05
0.00537143
-2.28164e-05
0.00546232
-4.60845e-05
0.0054721
-6.73528e-05
0.00527299
-9.64712e-05
0.00514436
-0.000107034
0.00509705
-0.000145359
0.00521966
-0.000135885
0.00537768
-9.59359e-05
0.00548985
-9.01967e-05
0.00541875
-5.34545e-05
0.00533076
3.30189e-06
0.00524824
5.78515e-06
1.37387e-06
0.00529127
0.00525014
-6.34036e-09
0.00525293
-5.71549e-07
0.00525071
2.60126e-06
0.00524148
3.36885e-06
0.00526323
5.54972e-06
0.00525479
3.13573e-06
0.00525174
-8.07826e-06
0.00528519
-5.36451e-06
0.00529163
-1.58674e-05
0.00532315
1.0232e-05
0.00532316
2.44064e-05
0.00532456
2.11993e-05
0.00530851
9.79599e-06
0.00516847
-5.77664e-05
0.0050108
-2.70092e-05
0.00501269
-2.07535e-05
0.00512254
-1.86468e-06
0.00523223
1.89653e-06
0.00537722
2.8222e-05
0.00538219
3.43367e-05
0.00534591
3.15145e-05
0.00540739
-2.72828e-05
0.00543064
-2.682e-05
0.00538831
1.01536e-05
0.00522566
1.86553e-06
0.00524874
1.32681e-05
0.00534376
1.17608e-05
0.00537598
2.16603e-05
0.00539298
2.74238e-05
0.00532411
1.57782e-05
0.00522475
-1.41286e-05
0.00506359
-3.26496e-05
0.00502785
-4.92382e-05
0.00499768
-4.00991e-05
0.00519636
-3.26627e-05
0.00543424
-2.43475e-05
0.00555338
-3.71637e-05
0.00561218
-5.84189e-05
0.00539602
-6.27754e-05
0.00517292
-5.85677e-05
0.00509781
-0.000107499
0.00531147
-0.0001478
0.00544698
-9.59969e-05
0.00553014
-0.000102666
0.00572701
-0.000117757
0.00580389
-9.30909e-05
0.0057354
-2.62408e-05
-3.4659e-05
0.00546135
0.00524997
-3.09284e-08
0.00524683
1.41572e-06
0.00524298
4.95653e-06
0.00524874
-4.59685e-06
0.00526564
-1.82047e-06
0.00524823
4.10349e-05
0.0052048
6.95335e-07
0.00520254
-3.0777e-06
0.00523296
7.90404e-06
0.00521677
-1.49579e-05
0.00522226
-2.38178e-05
0.00525219
-2.27688e-05
0.00528181
-3.75543e-06