/*--------------------------------*- C++ -*----------------------------------*\
| =========                 |                                                 |
| \\      /  F ield         | OpenFOAM: The Open Source CFD Toolbox           |
|  \\    /   O peration     | Version:  v1912                                 |
|   \\  /    A nd           | Website:  www.openfoam.com                      |
|    \\/     M anipulation  |                                                 |
\*---------------------------------------------------------------------------*/
FoamFile
{
    version     2.0;
    format      ascii;
    class       volScalarField;
    location    "0.1";
    object      rho;
}
// * * * * * * * * * * * * * * * * * * * * * * * * * * * * * * * * * * * * * //

dimensions      [1 -3 0 0 0 0 0];


internalField   nonuniform List<scalar> 
16128
(
1.39996
1.39941
1.39858
1.39845
1.40046
1.40304
1.40332
1.40326
1.40049
1.39804
1.39845
1.40043
1.41208
1.41338
1.4127
1.41948
1.40312
1.39048
1.38106
1.37976
1.37483
1.37618
1.3783
1.38836
1.40259
1.42114
1.44732
1.45807
1.46052
1.46193
1.46277
1.4603
1.44601
1.42902
1.40542
1.36413
1.35739
1.33128
1.25532
1.45481
2.88624
6.03369
5.67088
5.63653
5.76691
6.0949
6.32229
6.42281
1.39991
1.40063
1.40403
1.40745
1.40342
1.3975
1.39181
1.39117
1.39776
1.3982
1.39434
1.39176
1.3869
1.37787
1.33866
1.36038
1.40479
1.41694
1.42364
1.41775
1.4155
1.41103
1.4084
1.39517
1.39206
1.39587
1.41261
1.4222
1.43252
1.44406
1.44808
1.44995
1.44183
1.44689
1.45993
1.49049
1.50207
1.50929
1.5202
1.58427
3.29379
5.87173
5.69479
5.61903
5.72309
6.04079
6.26517
6.36775
1.39987
1.39858
1.39646
1.39457
1.39847
1.40332
1.40676
1.40596
1.40519
1.39085
1.39286
1.39308
1.40535
1.43282
1.44605
1.44397
1.41519
1.40042
1.401
1.40745
1.42115
1.42902
1.43364
1.4299
1.40223
1.36589
1.3308
1.32318
1.33536
1.36062
1.39086
1.40763
1.41911
1.42311
1.4353
1.45888
1.50702
1.508
1.47614
1.59103
3.17471
5.93328
5.72742
5.60105
5.65997
5.97291
6.18614
6.28571
1.40005
1.40078
1.40154
1.40297
1.40097
1.39786
1.38948
1.39178
1.39925
1.42304
1.43161
1.43076
1.40631
1.38968
1.37786
1.39616
1.4001
1.40399
1.40459
1.41069
1.42145
1.43008
1.43319
1.42968
1.41057
1.36897
1.29054
1.27509
1.30712
1.32302
1.34422
1.36822
1.40534
1.42563
1.43517
1.43561
1.43124
1.37094
1.22727
1.35391
2.6637
5.81124
5.80522
5.58653
5.59334
5.91146
6.11487
6.20742
1.39997
1.399
1.39821
1.39971
1.40179
1.40332
1.4024
1.40743
1.4022
1.38183
1.35821
1.37835
1.40381
1.37971
1.37169
1.37473
1.38445
1.38694
1.39424
1.4016
1.40883
1.40582
1.39818
1.39674
1.42447
1.46944
1.48451
1.47087
1.41629
1.3455
1.32729
1.34173
1.37557
1.40266
1.42672
1.42017
1.40791
1.33051
1.15954
1.24196
2.31266
5.37254
5.84653
5.6077
5.54668
5.86155
6.05266
6.13677
1.40003
1.40085
1.40163
1.40081
1.3986
1.39706
1.39569
1.40146
1.40505
1.40588
1.40238
1.39841
1.40057
1.38374
1.38988
1.40349
1.41666
1.42801
1.41148
1.38652
1.34827
1.33831
1.35732
1.37581
1.39932
1.43813
1.45984
1.45392
1.40817
1.35267
1.32009
1.31978
1.35072
1.40213
1.43135
1.41787
1.40697
1.33565
1.17359
1.21323
2.08858
5.04736
5.88015
5.64963
5.52912
5.80127
5.97259
6.05684
1.39996
1.39921
1.39837
1.39658
1.39974
1.4047
1.4122
1.39725
1.39404
1.39432
1.39996
1.40942
1.42795
1.43317
1.43891
1.45079
1.40077
1.4084
1.41039
1.38423
1.36621
1.36816
1.38842
1.4149
1.43422
1.42116
1.40589
1.38562
1.36348
1.33951
1.32659
1.32924
1.34139
1.36787
1.38833
1.41625
1.40737
1.3156
1.23413
1.17414
1.92045
4.66738
5.85148
5.6857
5.52454
5.72433
5.86373
5.96177
1.40005
1.40084
1.40178
1.40343
1.4006
1.39397
1.39232
1.40081
1.4045
1.40709
1.40671
1.40067
1.39116
1.38685
1.39584
1.38882
1.40973
1.43297
1.44856
1.44608
1.44819
1.45603
1.43951
1.44051
1.43672
1.42078
1.40167
1.38192
1.37474
1.34785
1.33735
1.34185
1.37027
1.38944
1.40647
1.41651
1.3855
1.28408
1.17398
1.07892
1.70664
4.29044
5.71449
5.60657
5.45814
5.62415
5.73962
5.85397
1.39994
1.39918
1.39841
1.39861
1.3997
1.40276
1.40449
1.39811
1.39381
1.39683
1.40021
1.40178
1.3987
1.38346
1.37904
1.37791
1.38386
1.37023
1.3482
1.33881
1.33542
1.35504
1.38784
1.38625
1.40118
1.40124
1.40292
1.41171
1.42027
1.42015
1.40119
1.38815
1.38163
1.39929
1.40687
1.39247
1.34153
1.2476
1.14932
1.05027
1.46956
3.78686
5.45669
5.41831
5.33735
5.5234
5.64009
5.74621
1.40012
1.40093
1.40169
1.40106
1.39923
1.39191
1.3887
1.39596
1.40724
1.41938
1.40904
1.42589
1.39541
1.38448
1.37733
1.3737
1.37616
1.36592
1.34513
1.31872
1.30743
1.30238
1.32314
1.34589
1.35566
1.37075
1.38343
1.40208
1.41606
1.42148
1.40825
1.37889
1.35376
1.3546
1.36531
1.37118
1.34548
1.29022
1.2333
1.25081
1.47761
3.49358
5.18892
5.22623
5.2387
5.44825
5.55382
5.65273
1.39987
1.399
1.39809
1.39851
1.40032
1.4052
1.40637
1.40243
1.3994
1.37583
1.3715
1.3824
1.41971
1.42541
1.43951
1.43521
1.40874
1.37387
1.36674
1.36481
1.36813
1.36397
1.35873
1.34958
1.34253
1.35131
1.37277
1.39596
1.41537
1.43358
1.42437
1.40134
1.38284
1.39362
1.41637
1.45717
1.47371
1.46116
1.41727
1.39308
1.53319
3.27196
5.17374
5.21668
5.26017
5.41543
5.49986
5.5779
1.40014
1.40136
1.40242
1.40107
1.4008
1.39906
1.39916
1.40075
1.39744
1.40578
1.3992
1.40063
1.39925
1.40383
1.41016
1.41783
1.43203
1.43893
1.44194
1.46242
1.47704
1.46315
1.41883
1.38213
1.35744
1.35251
1.37377
1.40303
1.41958
1.43236
1.46619
1.52612
1.51518
1.54187
1.53304
1.51787
1.52325
1.52623
1.51562
1.52167
1.58171
2.81683
5.14892
5.28833
5.32853
5.3946
5.45853
5.51185
1.39972
1.39874
1.39782
1.39867
1.40023
1.40133
1.40262
1.39921
1.40049
1.39721
1.39563
1.39165
1.39459
1.40246
1.40891
1.40868
1.39831
1.41092
1.45277
1.49742
1.49913
1.47885
1.4319
1.3891
1.36933
1.36021
1.35559
1.35048
1.36482
1.39137
1.42031
1.45304
1.46218
1.46545
1.47374
1.47067
1.48413
1.5097
1.51092
1.45641
1.53988
2.2746
4.77138
5.37619
5.35647
5.33868
5.43507
5.42391
1.40019
1.40067
1.40198
1.40156
1.40214
1.39233
1.38147
1.39159
1.40952
1.42372
1.42353
1.40072
1.40156
1.40784
1.41052
1.40446
1.40013
1.40164
1.42266
1.42301
1.40421
1.39273
1.40102
1.40908
1.41862
1.40539
1.37291
1.36108
1.37548
1.41758
1.44067
1.4437
1.42031
1.41101
1.40849
1.40578
1.41024
1.42896
1.4407
1.44032
1.44015
1.77331
3.92682
5.35716
5.25406
5.24541
5.44551
5.3503
1.39982
1.39951
1.39786
1.39621
1.39588
1.41099
1.42134
1.41919
1.38942
1.37568
1.39162
1.42218
1.43538
1.41773
1.39657
1.3817
1.39124
1.38081
1.35574
1.22748
1.19297
1.21694
1.29595
1.39166
1.43
1.43906
1.45063
1.45545
1.46092
1.46813
1.44712
1.40371
1.38304
1.37236
1.37585
1.38438
1.39576
1.41977
1.43832
1.41772
1.38594
1.44768
2.79055
4.87259
5.0984
5.21522
5.34674
5.22241
1.40015
1.40059
1.40197
1.40244
1.4034
1.39269
1.3813
1.39022
1.40252
1.40101
1.39948
1.3952
1.37557
1.32348
1.32165
1.36453
1.41147
1.41639
1.42785
1.40204
1.36592
1.36566
1.38784
1.4124
1.42719
1.4275
1.433
1.43332
1.41412
1.4011
1.38351
1.35344
1.34094
1.3317
1.3341
1.36803
1.40565
1.43175
1.46672
1.47073
1.42094
1.33154
2.02739
4.01442
4.97839
5.20915
5.14798
4.73878
1.39981
1.39937
1.39781
1.39552
1.3969
1.40966
1.41604
1.41513
1.40138
1.39417
1.39004
1.3852
1.38755
1.39648
1.41348
1.42625
1.4221
1.42391
1.44029
1.46315
1.47746
1.47849
1.47159
1.43725
1.4198
1.41488
1.42058
1.42612
1.43091
1.40978
1.38873
1.3625
1.3416
1.32095
1.31107
1.32628
1.36982
1.41064
1.44615
1.43192
1.35769
1.2927
1.50579
3.30162
4.81488
5.03791
4.7342
3.77372
1.40027
1.40122
1.40241
1.40111
1.40075
1.39082
1.39007
1.39624
1.406
1.41671
1.41586
1.41016
1.40716
1.4109
1.41868
1.41787
1.41395
1.41185
1.41524
1.42824
1.43587
1.43049
1.42114
1.41261
1.41261
1.41113
1.41575
1.42538
1.44207
1.45067
1.44639
1.42008
1.35534
1.28466
1.26486
1.29195
1.34567
1.38501
1.41208
1.41327
1.3879
1.36477
1.38947
2.28065
4.50842
4.82287
4.51389
3.59178
1.39979
1.3985
1.39718
1.39835
1.40283
1.40603
1.40647
1.40688
1.40011
1.38618
1.38647
1.39276
1.41192
1.41804
1.41727
1.41843
1.4155
1.40892
1.35801
1.30489
1.29311
1.31943
1.35972
1.42884
1.46193
1.45205
1.42677
1.40809
1.38673
1.38865
1.39444
1.36689
1.32934
1.30952
1.31148
1.34618
1.37777
1.4121
1.43912
1.44949
1.44463
1.42449
1.39501
1.57712
3.20279
4.27522
4.27853
3.64223
1.40016
1.40141
1.40239
1.40059
1.3999
1.39594
1.39245
1.39732
1.40329
1.40443
1.40433
1.40969
1.40483
1.39909
1.38709
1.37699
1.37788
1.38225
1.38321
1.38204
1.3878
1.39725
1.41936
1.44001
1.43258
1.41824
1.37937
1.29513
1.24099
1.2368
1.25642
1.30038
1.32899
1.35144
1.37402
1.40811
1.43948
1.45842
1.45909
1.45801
1.44792
1.41979
1.38278
1.34171
1.88313
3.4515
4.01089
3.7076
1.39988
1.39896
1.39781
1.39572
1.39695
1.40225
1.40372
1.40284
1.39578
1.39924
1.40453
1.41051
1.40551
1.40252
1.39177
1.38306
1.383
1.39144
1.40624
1.42609
1.44378
1.4344
1.41216
1.36742
1.34171
1.33474
1.34668
1.37559
1.38247
1.36938
1.35644
1.36182
1.37278
1.38711
1.39995
1.42316
1.44858
1.46293
1.46407
1.46174
1.45495
1.4611
1.41445
1.27891
1.39034
2.15259
3.60655
3.76209
1.40006
1.40089
1.40228
1.40406
1.40249
1.39839
1.38545
1.38729
1.3999
1.40606
1.40294
1.37921
1.36904
1.37473
1.39496
1.4088
1.40787
1.40654
1.40473
1.40812
1.41986
1.42574
1.43579
1.45205
1.4534
1.4523
1.46048
1.47753
1.4773
1.46521
1.43584
1.41304
1.40073
1.39545
1.41382
1.4426
1.48056
1.49025
1.48913
1.46792
1.44054
1.42954
1.4279
1.40838
1.40974
1.50561
2.13307
3.24585
1.39999
1.3995
1.39873
1.39798
1.39569
1.40315
1.41161
1.42441
1.38433
1.3852
1.39299
1.40889
1.41455
1.41203
1.41105
1.41616
1.40738
1.38991
1.36499
1.34671
1.34222
1.35969
1.40285
1.46777
1.50716
1.51453
1.51216
1.48208
1.46708
1.45633
1.43655
1.40454
1.39815
1.41423
1.44181
1.45164
1.44978
1.45759
1.45764
1.45639
1.44578
1.43368
1.42592
1.40637
1.38396
1.36393
1.38642
1.83457
1.40001
1.40034
1.4012
1.40178
1.40289
1.39852
1.39061
1.40069
1.41035
1.40809
1.40025
1.396
1.39918
1.40795
1.41324
1.41794
1.42841
1.43201
1.40444
1.3607
1.32652
1.31608
1.31036
1.31625
1.32489
1.35744
1.40374
1.42143
1.42639
1.41848
1.41015
1.4023
1.39635
1.39456
1.39895
1.40676
1.41728
1.42201
1.41388
1.40524
1.40543
1.41154
1.40895
1.38598
1.3374
1.30917
1.29286
1.29949
1.39999
1.39965
1.39889
1.39776
1.39684
1.40071
1.40298
1.40316
1.40596
1.39288
1.3813
1.38052
1.37764
1.40222
1.4208
1.42503
1.42653
1.42371
1.40698
1.39196
1.36996
1.33575
1.29022
1.19848
1.17507
1.23107
1.33269
1.40855
1.43321
1.43365
1.41898
1.39998
1.38012
1.37429
1.37855
1.39279
1.41848
1.4406
1.42262
1.39308
1.37821
1.38024
1.39777
1.42282
1.42254
1.40682
1.39723
1.39749
1.40002
1.40034
1.40117
1.40212
1.40407
1.40092
1.39433
1.39261
1.38505
1.40508
1.42482
1.42847
1.4299
1.40964
1.37556
1.34947
1.34781
1.35975
1.39645
1.42225
1.42024
1.43501
1.44477
1.43415
1.41563
1.39622
1.39842
1.40981
1.41875
1.41568
1.4007
1.37384
1.35377
1.34962
1.35847
1.38655
1.42394
1.44692
1.42802
1.39818
1.37943
1.37948
1.414
1.45233
1.48776
1.49769
1.49282
1.46217
1.39996
1.39949
1.39817
1.39729
1.39769
1.39887
1.40808
1.40709
1.4122
1.39735
1.3989
1.40061
1.40127
1.40121
1.39658
1.39204
1.39189
1.38293
1.37438
1.35017
1.35052
1.38647
1.46337
1.519
1.52449
1.47742
1.41661
1.40329
1.40103
1.40091
1.39571
1.38148
1.36145
1.34041
1.34417
1.37327
1.41078
1.42603
1.41061
1.3757
1.3413
1.34208
1.36825
1.40896
1.46154
1.49556
1.50297
1.49003
1.40002
1.40031
1.40176
1.40267
1.40249
1.40573
1.39621
1.39222
1.39598
1.40741
1.40942
1.40149
1.38613
1.38592
1.39608
1.41728
1.43935
1.45793
1.42048
1.3727
1.33218
1.3093
1.30898
1.33927
1.37984
1.40034
1.39665
1.39623
1.39974
1.4092
1.40995
1.39316
1.36257
1.34649
1.34964
1.38182
1.4033
1.42203
1.40822
1.35322
1.28425
1.24058
1.24485
1.27586
1.33449
1.40299
1.48939
1.55486
1.39981
1.39924
1.39898
1.39849
1.39784
1.39753
1.40314
1.40627
1.40187
1.39095
1.38122
1.38566
1.39955
1.40713
1.40208
1.3998
1.40829
1.41497
1.41862
1.41405
1.39905
1.33648
1.27312
1.26963
1.32412
1.40874
1.44987
1.42479
1.41696
1.41463
1.40765
1.3978
1.37618
1.35393
1.35218
1.38079
1.4206
1.44657
1.42815
1.32852
1.22517
1.17828
1.15537
1.20912
1.29299
1.36217
1.43766
1.53315
1.40077
1.40122
1.40048
1.40057
1.40133
1.40331
1.40479
1.40207
1.39763
1.40178
1.40991
1.41363
1.41016
1.40302
1.40545
1.40309
1.4005
1.41288
1.43373
1.45783
1.47349
1.48181
1.45571
1.44811
1.4383
1.41828
1.39669
1.38384
1.38715
1.39513
1.38413
1.36232
1.31607
1.30728
1.32445
1.37076
1.41251
1.43634
1.43107
1.37097
1.282
1.25344
1.24894
1.27848
1.32904
1.37813
1.41611
1.44915
1.39861
1.39896
1.40078
1.40258
1.40143
1.39743
1.393
1.39661
1.40134
1.40715
1.40644
1.40541
1.39852
1.40452
1.41146
1.42262
1.42683
1.42116
1.39733
1.38833
1.40137
1.41159
1.39192
1.35199
1.34517
1.36405
1.3741
1.4035
1.40493
1.41684
1.41927
1.38313
1.31653
1.30075
1.31194
1.35946
1.39481
1.4298
1.43585
1.38592
1.32796
1.28647
1.27466
1.29017
1.31468
1.34126
1.37675
1.40954
1.40188
1.40128
1.39852
1.39562
1.39573
1.39944
1.40359
1.40154
1.39281
1.38609
1.39247
1.39592
1.39702
1.39206
1.3844
1.3825
1.39613
1.40303
1.39225
1.36405
1.34448
1.33448
1.33038
1.32587
1.33925
1.35841
1.37529
1.38715
1.39261
1.39632
1.40074
1.39162
1.35567
1.31861
1.31276
1.33392
1.38364
1.45417
1.48488
1.47109
1.43402
1.39364
1.37158
1.3617
1.35643
1.36657
1.395
1.42168
1.39847
1.39861
1.40114
1.40403
1.40472
1.40243
1.39811
1.39438
1.3944
1.4011
1.39863
1.39137
1.39844
1.414
1.40431
1.40641
1.3629
1.35027
1.34312
1.34017
1.33609
1.35264
1.38778
1.41406
1.41922
1.42143
1.42167
1.41841
1.41605
1.42482
1.42429
1.40212
1.34941
1.32836
1.32889
1.34451
1.38911
1.46695
1.52948
1.55015
1.5457
1.52133
1.50642
1.48313
1.44453
1.41055
1.39471
1.38898
1.40115
1.4011
1.39933
1.39706
1.39783
1.40127
1.40512
1.40461
1.4037
1.40515
1.41558
1.42534
1.42184
1.41608
1.40078
1.40257
1.40097
1.38982
1.38584
1.38637
1.38973
1.40221
1.41955
1.42451
1.42048
1.41793
1.41872
1.42704
1.43519
1.43867
1.43537
1.40173
1.36801
1.35527
1.34578
1.35455
1.39162
1.45748
1.51872
1.55551
1.54849
1.53067
1.51258
1.47585
1.42816
1.39049
1.38179
1.38979
1.39931
1.3993
1.40065
1.4025
1.39974
1.39616
1.39425
1.39352
1.39978
1.40674
1.40302
1.39673
1.39045
1.38906
1.39357
1.39758
1.4044
1.40172
1.41132
1.42556
1.43611
1.43631
1.42747
1.41817
1.41058
1.40888
1.40604
1.40002
1.40065
1.40361
1.41375
1.42168
1.40261
1.3921
1.38574
1.39375
1.42449
1.46505
1.49422
1.51081
1.51105
1.49453
1.46442
1.43211
1.41059
1.39583
1.40802
1.42948
1.40024
1.39968
1.39811
1.39617
1.39692
1.40412
1.40243
1.40647
1.38674
1.38079
1.38061
1.39108
1.39747
1.3961
1.39686
1.40087
1.4187
1.4491
1.47614
1.46875
1.46733
1.44355
1.41652
1.40676
1.40784
1.40544
1.38629
1.3823
1.38641
1.39558
1.4044
1.40598
1.40187
1.38658
1.37877
1.37839
1.39066
1.40853
1.42929
1.44481
1.45758
1.47887
1.47531
1.46049
1.44198
1.42092
1.41342
1.41492
1.39991
1.4005
1.40214
1.4036
1.40254
1.39903
1.39504
1.38989
1.40384
1.40844
1.41186
1.41333
1.4133
1.39772
1.38062
1.38289
1.38371
1.39872
1.4007
1.3832
1.36557
1.37106
1.38545
1.39121
1.39265
1.38009
1.37757
1.37195
1.37407
1.38795
1.40567
1.41507
1.39249
1.36749
1.35127
1.3386
1.33161
1.32397
1.32223
1.3358
1.3723
1.43249
1.48208
1.49416
1.47554
1.4439
1.41163
1.39192
1.4002
1.39989
1.39956
1.39636
1.39263
1.39444
1.40795
1.42736
1.42463
1.41452
1.3817
1.3826
1.38724
1.40076
1.40188
1.39199
1.35225
1.29412
1.3224
1.36507
1.41186
1.43508
1.43893
1.43505
1.42423
1.40393
1.39101
1.38583
1.38486
1.39553
1.40958
1.41028
1.39681
1.37285
1.35345
1.33109
1.3124
1.28695
1.2642
1.26363
1.30406
1.38953
1.47864
1.5165
1.52852
1.49596
1.44634
1.41542
1.39983
1.39988
1.40081
1.40616
1.40297
1.41121
1.39123
1.3766
1.38147
1.39508
1.41161
1.41133
1.40306
1.39411
1.39731
1.40211
1.43247
1.42021
1.41875
1.45603
1.45969
1.46513
1.45937
1.44555
1.42505
1.41179
1.40595
1.40313
1.40348
1.41167
1.42521
1.43193
1.43213
1.42594
1.42172
1.40836
1.38646
1.34249
1.31598
1.30452
1.31261
1.37173
1.4376
1.51331
1.5617
1.57319
1.55485
1.52701
1.40018
1.39979
1.39923
1.39618
1.39575
1.39629
1.41442
1.40797
1.41057
1.40399
1.39164
1.39786
1.40397
1.41242
1.41355
1.42597
1.45335
1.47156
1.46512
1.4263
1.38787
1.3792
1.37375
1.37152
1.37157
1.36402
1.36072
1.36274
1.37078
1.3834
1.39905
1.4164
1.4341
1.44084
1.43746
1.44056
1.4369
1.41928
1.36898
1.34174
1.33551
1.36829
1.42214
1.49018
1.55541
1.5923
1.57887
1.56064
1.39974
1.39918
1.40024
1.40195
1.40312
1.40154
1.399
1.39377
1.39365
1.3985
1.40073
1.39462
1.38592
1.39046
1.40528
1.41971
1.41838
1.39502
1.36135
1.33027
1.28945
1.2503
1.24209
1.29327
1.33453
1.32903
1.31713
1.31983
1.32739
1.34343
1.36819
1.39519
1.41257
1.423
1.42127
1.41798
1.41594
1.41213
1.38395
1.34419
1.32085
1.33242
1.41267
1.4857
1.53708
1.5542
1.54578
1.50555
1.40035
1.3989
1.39646
1.39537
1.39476
1.39485
1.39657
1.40012
1.4026
1.40539
1.40637
1.40589
1.40624
1.39553
1.38002
1.35835
1.35521
1.36598
1.37641
1.38461
1.38723
1.39126
1.39635
1.39269
1.38124
1.36006
1.33336
1.32259
1.3198
1.3368
1.36938
1.38591
1.40194
1.39738
1.3855
1.36975
1.36345
1.36633
1.35926
1.32348
1.29464
1.30026
1.34881
1.4254
1.4762
1.49982
1.48589
1.41736
1.39989
1.40013
1.40174
1.40352
1.40617
1.40673
1.40629
1.40596
1.3999
1.39254
1.3908
1.38987
1.39384
1.39525
1.40361
1.40579
1.39373
1.3876
1.39245
1.40769
1.42707
1.45424
1.48363
1.48293
1.48082
1.45411
1.40512
1.37457
1.35638
1.3602
1.38659
1.41946
1.4264
1.42476
1.40165
1.37143
1.36141
1.35177
1.33439
1.29717
1.25824
1.2454
1.27364
1.34373
1.39745
1.44218
1.45129
1.38595
1.39973
1.40041
1.40195
1.40309
1.40025
1.3965
1.39482
1.39299
1.39705
1.40184
1.40523
1.40721
1.40055
1.39902
1.40561
1.41377
1.41309
1.41281
1.40085
1.41333
1.41765
1.41491
1.41418
1.42524
1.43851
1.44366
1.43186
1.41487
1.409
1.40871
1.42237
1.43551
1.44854
1.43983
1.40221
1.33958
1.30589
1.29461
1.30291
1.2998
1.26594
1.2494
1.24239
1.28632
1.34471
1.41583
1.43619
1.40313
1.40036
1.39992
1.39833
1.39614
1.39536
1.39812
1.40024
1.4048
1.40111
1.39889
1.40192
1.40986
1.42192
1.42707
1.41593
1.41113
1.42447
1.43546
1.44667
1.44335
1.41773
1.30333
1.26741
1.29423
1.34781
1.402
1.42434
1.43239
1.43117
1.43064
1.42939
1.42809
1.42679
1.42597
1.40139
1.36481
1.33176
1.32997
1.33226
1.32529
1.29333
1.27053
1.24698
1.27117
1.32385
1.40114
1.44733
1.43527
1.39991
1.40031
1.40127
1.40214
1.40297
1.4
1.39787
1.39388
1.40465
1.41049
1.41452
1.41955
1.40088
1.38746
1.38117
1.38134
1.3754
1.37614
1.38112
1.40115
1.43234
1.42722
1.41824
1.3866
1.39077
1.39374
1.38634
1.37448
1.36974
1.36806
1.37785
1.39464
1.40781
1.41623
1.41293
1.37174
1.33722
1.34339
1.34391
1.32293
1.30297
1.28414
1.27142
1.27615
1.32363
1.39917
1.45787
1.46751
1.40002
1.39948
1.39883
1.39828
1.39903
1.40468
1.40547
1.39994
1.39205
1.3884
1.38481
1.37898
1.3894
1.39734
1.40372
1.40455
1.39504
1.38452
1.39174
1.41413
1.44191
1.46826
1.46768
1.45553
1.44048
1.42495
1.38419
1.3591
1.3667
1.35824
1.3617
1.37833
1.40368
1.41485
1.41344
1.3921
1.34937
1.32573
1.31818
1.30126
1.28005
1.26289
1.28264
1.32954
1.39635
1.49002
1.55602
1.56227
1.39996
1.3999
1.4004
1.40385
1.4062
1.40443
1.39156
1.37761
1.3866
1.38791
1.3984
1.39478
1.39976
1.40531
1.41154
1.41734
1.43618
1.4361
1.417
1.42142
1.43165
1.44659
1.46324
1.46432
1.45612
1.45115
1.4592
1.4654
1.45453
1.43747
1.42013
1.40674
1.40623
1.41745
1.42674
1.38598
1.31841
1.27811
1.2537
1.23663
1.22522
1.22131
1.23985
1.34375
1.47688
1.54927
1.61667
1.60855
1.4
1.39987
1.39967
1.39524
1.38972
1.39568
1.40695
1.43265
1.42133
1.43171
1.37512
1.36466
1.36894
1.37222
1.37561
1.38295
1.38696
1.39094
1.38839
1.4116
1.42215
1.4326
1.42306
1.41267
1.39342
1.37799
1.39402
1.42216
1.44566
1.45646
1.43732
1.42181
1.41438
1.41969
1.4284
1.41779
1.37232
1.28705
1.21762
1.20354
1.20276
1.21691
1.24419
1.31848
1.38914
1.42804
1.45353
1.41777
1.39998
1.39987
1.40006
1.40454
1.40655
1.40467
1.39117
1.38187
1.40045
1.4153
1.42079
1.41838
1.41158
1.3708
1.31215
1.31968
1.3493
1.38903
1.39698
1.3815
1.33374
1.30804
1.30547
1.32173
1.33274
1.34165
1.35662
1.38681
1.42403
1.45929
1.45913
1.46098
1.45332
1.44751
1.4448
1.43162
1.39524
1.31959
1.23263
1.20615
1.20643
1.24312
1.27873
1.30591
1.35223
1.37656
1.35839
1.30562
1.39999
1.39967
1.3999
1.39566
1.39529
1.40417
1.40615
1.40246
1.39102
1.39399
1.40326
1.4123
1.43148
1.44371
1.44534
1.4278
1.41814
1.41415
1.41428
1.41121
1.38621
1.34986
1.33792
1.33649
1.34098
1.35371
1.36997
1.39125
1.40979
1.42238
1.43168
1.43806
1.44386
1.45141
1.45308
1.44155
1.41501
1.35792
1.28517
1.25879
1.26371
1.31229
1.35934
1.38581
1.43169
1.46375
1.44144
1.37497
1.39997
1.39995
1.39995
1.40552
1.40452
1.3992
1.38579
1.38788
1.39445
1.39626
1.39503
1.39654
1.41799
1.4486
1.45726
1.45328
1.42235
1.41173
1.41978
1.4382
1.44219
1.4452
1.44171
1.40731
1.35998
1.34682
1.35215
1.37077
1.39579
1.415
1.42163
1.43009
1.4431
1.45549
1.45533
1.45919
1.42853
1.37667
1.34111
1.32844
1.34867
1.38462
1.41731
1.45706
1.48976
1.47921
1.45239
1.43965
1.40002
1.39958
1.39977
1.39534
1.39247
1.39098
1.41006
1.4082
1.39991
1.38942
1.38291
1.41489
1.42186
1.4244
1.40129
1.39136
1.39401
1.39492
1.3835
1.38268
1.38989
1.3968
1.39931
1.3908
1.3847
1.38221
1.37829
1.3737
1.38299
1.40275
1.41635
1.41961
1.41918
1.41351
1.39587
1.39282
1.40427
1.40735
1.40165
1.4049
1.42205
1.45115
1.47592
1.49331
1.4984
1.48255
1.46323
1.46439
1.39994
1.40006
1.40041
1.40592
1.40239
1.40633
1.40064
1.40403
1.41072
1.41311
1.42237
1.3961
1.332
1.30233
1.2937
1.32518
1.37337
1.38816
1.38213
1.36645
1.35557
1.35357
1.375
1.38701
1.39376
1.38938
1.38337
1.38092
1.38947
1.4068
1.42275
1.43412
1.43103
1.3932
1.37566
1.37841
1.40336
1.42624
1.43346
1.43957
1.44904
1.47348
1.49462
1.50954
1.51971
1.52166
1.52059
1.51359
1.40003
1.39957
1.39904
1.39441
1.39748
1.40631
1.40699
1.40328
1.39728
1.40007
1.40363
1.40229
1.39251
1.38888
1.39557
1.40594
1.406
1.39609
1.38408
1.38789
1.39597
1.42145
1.42387
1.42846
1.42589
1.4059
1.38392
1.38126
1.39038
1.40824
1.43623
1.48246
1.52639
1.55087
1.5428
1.50143
1.4399
1.41415
1.39885
1.40675
1.43031
1.44958
1.46264
1.47022
1.46926
1.46914
1.47096
1.47124
1.39987
1.39987
1.40137
1.40318
1.4057
1.39983
1.37224
1.36998
1.37262
1.38085
1.38571
1.39755
1.41587
1.44275
1.45279
1.44603
1.41938
1.41022
1.42119
1.44674
1.46773
1.47941
1.45645
1.42361
1.40763
1.39276
1.36902
1.36153
1.36015
1.38211
1.4239
1.49755
1.55192
1.58702
1.58323
1.53925
1.46837
1.43057
1.40986
1.42917
1.44464
1.45289
1.44091
1.41767
1.37952
1.34605
1.35167
1.37456
1.40049
1.40014
1.39898
1.39571
1.39449
1.40923
1.40415
1.4159
1.40847
1.40336
1.39888
1.4085
1.42545
1.43954
1.44303
1.44118
1.44015
1.43526
1.43468
1.42131
1.42198
1.42183
1.41916
1.41288
1.4051
1.38972
1.36064
1.33886
1.31054
1.30777
1.33775
1.37295
1.40557
1.4262
1.46283
1.48396
1.47352
1.46482
1.45513
1.46488
1.47034
1.47561
1.46485
1.4377
1.34008
1.26101
1.22776
1.2077
1.39917
1.39851
1.40177
1.40591
1.40059
1.39756
1.3976
1.41683
1.44899
1.45736
1.43199
1.40957
1.36284
1.34615
1.34116
1.34902
1.38451
1.41028
1.4029
1.37519
1.36182
1.37158
1.39607
1.41089
1.40955
1.39745
1.36441
1.33323
1.30471
1.27886
1.27589
1.27134
1.27277
1.29554
1.34703
1.41072
1.47162
1.47884
1.44535
1.40442
1.40655
1.4244
1.44989
1.45815
1.4498
1.4065
1.37912
1.3609
1.40105
1.40374
1.40065
1.39523
1.39757
1.39546
1.40152
1.4003
1.38123
1.37624
1.37258
1.37968
1.38854
1.37174
1.35354
1.35528
1.35899
1.35287
1.36324
1.37191
1.39568
1.40359
1.39851
1.38938
1.37334
1.35015
1.33449
1.33462
1.34093
1.36211
1.34948
1.28664
1.23473
1.20528
1.24181
1.31646
1.38672
1.42948
1.42056
1.4101
1.39668
1.39057
1.38939
1.40301
1.40712
1.40499
1.40236
1.40426
1.39923
1.39667
1.39764
1.40168
1.40263
1.40558
1.39693
1.39188
1.39425
1.39369
1.39607
1.40098
1.40632
1.40526
1.38816
1.37389
1.38643
1.40412
1.41667
1.42688
1.4158
1.36713
1.31949
1.31016
1.3089
1.31859
1.33213
1.35537
1.3914
1.40708
1.39307
1.29729
1.235
1.18676
1.18716
1.24688
1.33598
1.3988
1.43374
1.43823
1.44784
1.43686
1.44274
1.3914
1.36825
1.36286
1.36404
1.37752
1.40144
1.40405
1.4056
1.40368
1.39775
1.39364
1.39685
1.4037
1.40867
1.40726
1.40138
1.39735
1.41564
1.43006
1.44164
1.45208
1.44001
1.43347
1.43338
1.41302
1.38341
1.35585
1.33134
1.33431
1.35493
1.3766
1.40206
1.4179
1.42665
1.41201
1.36082
1.25972
1.20317
1.16003
1.16181
1.24119
1.33195
1.41125
1.44878
1.43304
1.43198
1.43458
1.45254
1.45476
1.42239
1.39919
1.39566
1.39554
1.39924
1.39746
1.39598
1.39727
1.40116
1.40151
1.40067
1.40042
1.39976
1.3988
1.40169
1.40212
1.40339
1.39786
1.40321
1.40676
1.39792
1.38294
1.37868
1.38907
1.41092
1.43373
1.4437
1.44893
1.45656
1.46385
1.47098
1.46281
1.44879
1.39785
1.3254
1.22032
1.16945
1.13614
1.14959
1.23101
1.34754
1.42643
1.44545
1.43931
1.42153
1.4222
1.44147
1.4543
1.4467
1.43816
1.43331
1.42786
1.4
1.4009
1.40321
1.40492
1.4023
1.39246
1.39534
1.3905
1.39649
1.39725
1.39958
1.39427
1.39126
1.39408
1.40272
1.41684
1.41807
1.41669
1.4169
1.42032
1.43814
1.4651
1.46288
1.46197
1.46224
1.46538
1.45976
1.45012
1.4346
1.41059
1.35365
1.27921
1.25625
1.25128
1.29035
1.35681
1.41986
1.46084
1.4668
1.4516
1.43843
1.43518
1.44249
1.44575
1.44624
1.43997
1.42995
1.42631
1.39981
1.39909
1.39669
1.39396
1.39952
1.41522
1.41026
1.42352
1.37787
1.37883
1.37817
1.39642
1.40001
1.39826
1.3917
1.38056
1.3777
1.38077
1.38279
1.38964
1.38391
1.37811
1.41867
1.4504
1.45917
1.45749
1.45286
1.44621
1.43556
1.43532
1.45812
1.46561
1.47644
1.48385
1.4918
1.5046
1.5106
1.50296
1.48177
1.46002
1.45732
1.46089
1.46385
1.4605
1.45154
1.4399
1.43046
1.41862
1.40006
1.40194
1.40294
1.3974
1.39781
1.38497
1.39311
1.43204
1.4342
1.43942
1.41797
1.37245
1.37183
1.38375
1.39574
1.39685
1.38503
1.37819
1.37469
1.38117
1.38939
1.39638
1.40507
1.42177
1.43394
1.43853
1.44296
1.44246
1.44369
1.45752
1.47394
1.4982
1.51315
1.52909
1.52334
1.51775
1.51134
1.49834
1.48595
1.48288
1.48661
1.49468
1.4974
1.48444
1.46321
1.44777
1.4335
1.419
1.39985
1.39942
1.39773
1.39748
1.40805
1.40959
1.39401
1.38556
1.38824
1.39057
1.40778
1.42322
1.41981
1.42008
1.41859
1.42745
1.4133
1.37773
1.36437
1.35717
1.35043
1.34899
1.35866
1.36282
1.35844
1.34951
1.34393
1.35569
1.39801
1.4418
1.46076
1.47526
1.4783
1.48187
1.48973
1.5003
1.50917
1.51921
1.5267
1.53309
1.53945
1.54095
1.54049
1.51579
1.47917
1.45213
1.43329
1.42129
1.40038
1.40144
1.4034
1.40407
1.39722
1.39233
1.38429
1.3854
1.38413
1.40757
1.4243
1.42782
1.4202
1.39155
1.3742
1.37601
1.40288
1.4181
1.41295
1.39415
1.36463
1.3403
1.33601
1.33101
1.30414
1.28023
1.283
1.30398
1.36481
1.42062
1.43805
1.45075
1.44662
1.44402
1.44722
1.46111
1.47715
1.49685
1.51336
1.52895
1.53062
1.51515
1.50527
1.44383
1.39609
1.38526
1.39132
1.41729
1.39964
1.39805
1.39655
1.39822
1.40098
1.40815
1.40943
1.4123
1.41564
1.40377
1.38348
1.38154
1.38451
1.38615
1.38178
1.38406
1.39343
1.41465
1.43233
1.45305
1.46362
1.46303
1.4405
1.40233
1.31775
1.28764
1.28258
1.29882
1.34285
1.38611
1.39824
1.41172
1.41897
1.42629
1.43249
1.43212
1.4169
1.40089
1.40901
1.40967
1.34192
1.26603
1.22196
1.19966
1.1979
1.24604
1.34797
1.42892
1.40044
1.40074
1.40059
1.40138
1.39671
1.39923
1.39901
1.39153
1.3965
1.40198
1.40082
1.40214
1.40663
1.39885
1.38844
1.38586
1.38966
1.39398
1.40685
1.43558
1.47468
1.48474
1.46074
1.40484
1.35109
1.29848
1.28448
1.30332
1.33909
1.37773
1.41864
1.44106
1.44591
1.44269
1.42676
1.37656
1.31491
1.27589
1.25705
1.21812
1.14463
1.09069
1.07819
1.08913
1.11655
1.1676
1.27822
1.4103
1.39964
1.39827
1.39615
1.39494
1.40167
1.40382
1.40837
1.40708
1.41641
1.38486
1.36559
1.36855
1.38508
1.4067
1.40822
1.40713
1.40825
1.41222
1.42367
1.43288
1.43962
1.44425
1.4281
1.40834
1.37652
1.34823
1.34525
1.35998
1.38279
1.40325
1.43595
1.4709
1.47555
1.45859
1.42019
1.36787
1.31325
1.25521
1.19318
1.141
1.0982
1.06745
1.06565
1.08148
1.12635
1.17975
1.25116
1.37391
1.40031
1.40107
1.40354
1.40288
1.40058
1.38452
1.38735
1.40295
1.40467
1.40608
1.39747
1.39443
1.39787
1.40641
1.41303
1.41395
1.40962
1.41584
1.41927
1.40242
1.35132
1.33768
1.35786
1.38501
1.41908
1.43417
1.43901
1.44812
1.46186
1.48334
1.4939
1.48934
1.46725
1.43399
1.4017
1.35642
1.30609
1.2612
1.20432
1.13418
1.09098
1.09207
1.10386
1.1353
1.1683
1.20033
1.25127
1.35002
1.39989
1.39938
1.3977
1.3977
1.40819
1.41258
1.41039
1.41404
1.39492
1.38682
1.38782
1.39566
1.39962
1.41643
1.42154
1.41646
1.40393
1.37248
1.3558
1.34646
1.3437
1.34697
1.3676
1.39828
1.44014
1.47126
1.47103
1.46158
1.44707
1.44401
1.44164
1.43958
1.42855
1.40967
1.38127
1.34283
1.30456
1.2684
1.22598
1.18366
1.16659
1.17836
1.2034
1.25118
1.28051
1.27902
1.29428
1.38503
1.39999
1.40099
1.40253
1.40591
1.4001
1.39808
1.39489
1.39114
1.39387
1.41284
1.42676
1.4275
1.41164
1.36683
1.35482
1.35754
1.3723
1.38145
1.39005
1.39535
1.40829
1.43116
1.45063
1.46221
1.47813
1.49231
1.4916
1.47445
1.44693
1.41654
1.39487
1.3894
1.38984
1.38422
1.36217
1.32506
1.30367
1.29729
1.28976
1.2863
1.2978
1.32598
1.36171
1.3932
1.40747
1.38639
1.36229
1.37195
1.3997
1.39925
1.39764
1.39546
1.40083
1.40603
1.4025
1.40703
1.40761
1.39308
1.39139
1.39348
1.39823
1.41022
1.41292
1.40768
1.39296
1.38288
1.39885
1.41321
1.43291
1.44246
1.43959
1.43267
1.43371
1.43783
1.44571
1.45581
1.45082
1.42623
1.39521
1.37799
1.36842
1.35738
1.351
1.34611
1.34434
1.34883
1.35419
1.35886
1.36513
1.38335
1.42333
1.44866
1.40943
1.36702
1.33817
1.32581
1.40035
1.40143
1.40407
1.40875
1.40828
1.39031
1.38087
1.39387
1.40995
1.41117
1.41009
1.40662
1.40448
1.40976
1.416
1.42184
1.42443
1.42828
1.42269
1.42119
1.41821
1.37661
1.3057
1.26838
1.25216
1.26384
1.30086
1.35272
1.39254
1.41826
1.40974
1.39125
1.37236
1.35358
1.35463
1.36043
1.37315
1.39817
1.40868
1.39565
1.39389
1.40231
1.40788
1.38945
1.33754
1.30251
1.27643
1.27137
1.39958
1.39786
1.39563
1.39368
1.39622
1.40938
1.41536
1.42118
1.38593
1.38518
1.38797
1.3942
1.39628
1.39158
1.38162
1.38521
1.38606
1.38551
1.38393
1.38679
1.3808
1.35324
1.25875
1.19554
1.1926
1.22697
1.28195
1.34836
1.38898
1.42197
1.42269
1.41646
1.40852
1.39204
1.38199
1.37926
1.38954
1.39624
1.39404
1.39257
1.39321
1.39071
1.37882
1.35444
1.30401
1.25932
1.23298
1.24543
1.40039
1.40073
1.40141
1.39763
1.40198
1.38057
1.39157
1.39333
1.40722
1.39505
1.39695
1.39461
1.39369
1.40041
1.40448
1.39459
1.38387
1.36689
1.36727
1.38957
1.43162
1.45678
1.43692
1.38821
1.36083
1.36353
1.38648
1.41662
1.42134
1.41913
1.41033
1.40778
1.4067
1.40065
1.39559
1.39086
1.3861
1.37748
1.37431
1.37325
1.37469
1.37516
1.36715
1.32175
1.27282