/*--------------------------------*- C++ -*----------------------------------*\
| =========                 |                                                 |
| \\      /  F ield         | OpenFOAM: The Open Source CFD Toolbox           |
|  \\    /   O peration     | Version:  v1912                                 |
|   \\  /    A nd           | Website:  www.openfoam.com                      |
|    \\/     M anipulation  |                                                 |
\*---------------------------------------------------------------------------*/
FoamFile
{
    version     2.0;
    format      ascii;
    class       volScalarField;
    location    "0.1";
    object      T;
}
// * * * * * * * * * * * * * * * * * * * * * * * * * * * * * * * * * * * * * //

dimensions      [0 0 0 1 0 0 0];


internalField   nonuniform List<scalar> 
16128
(
1.00001
1.00029
1.0056
1.00388
0.993315
0.995184
0.993882
0.994498
1.00701
1.03465
1.02918
1.00957
0.948042
0.875644
0.812928
0.916016
0.960352
1.11322
1.04323
1.04085
1.01662
1.01743
1.00271
0.996959
0.978913
1.00772
1.00291
1.00167
0.99336
0.989628
0.985241
0.972459
0.976495
1.14963
1.14129
1.09762
1.09738
1.0246
0.926092
1.76745
1.76459
3.52339
4.02493
4.10901
4.07368
3.92714
3.69022
3.57879
0.999888
0.998715
0.996586
0.986939
0.998718
1.01771
1.04951
1.02201
0.995094
0.980595
0.990938
1.00352
1.05582
1.19534
1.6887
1.38482
1.2178
0.960156
0.981128
0.990291
0.990614
0.991008
1.01872
1.02566
1.05968
1.03979
1.00785
0.939686
0.953393
0.968393
0.968166
0.992799
1.02113
0.9417
0.966695
0.959121
0.944733
0.991166
1.01072
0.924045
1.65173
3.735
4.03572
4.10697
4.06539
3.91475
3.67743
3.56701
1.00009
1.0014
1.01395
1.00922
1.00413
0.927399
0.842905
0.884075
0.957136
1.03968
1.01992
1.03253
1.02057
0.937425
0.698241
0.739688
0.887595
0.996417
0.986803
0.995738
0.993124
0.993083
0.965425
0.96959
0.97427
1.10648
1.04969
1.10665
1.08607
1.10976
1.10356
1.0531
1.04431
1.00788
0.977724
1.0265
1.01871
1.01926
0.992721
1.14515
1.70973
3.71638
4.05223
4.11601
4.0591
3.89925
3.65794
3.54742
0.999964
0.998947
0.979325
0.982011
1.00294
1.07902
1.20385
1.1328
1.04046
0.953482
0.787537
0.850512
0.889107
1.06127
1.16324
1.22524
1.11052
1.05527
0.972685
0.980286
0.975829
0.968877
0.971005
0.973271
0.987727
1.07883
1.6257
1.46477
1.3992
1.29222
1.25803
1.13055
0.998541
1.02274
1.01536
1.0342
1.17432
1.15638
1.09082
1.69663
1.87742
3.48963
4.08399
4.12659
4.05461
3.88224
3.63581
3.52503
1.00003
1.0008
1.02337
1.03404
0.971825
0.959018
0.947134
0.985701
1.0474
1.06659
1.39391
1.37714
1.13963
1.1206
1.11251
1.10875
1.12099
1.06801
1.08162
1.03019
0.991918
1.00369
1.03559
1.03542
1.01845
0.947793
0.832585
0.892239
1.0731
1.18713
1.16949
1.14436
1.03321
1.04327
1.03274
1.03471
1.27881
1.21406
1.23454
1.76256
1.91047
3.42728
4.1284
4.13295
4.05017
3.86448
3.61265
3.50143
0.999955
0.999278
0.979234
0.968546
1.02492
1.05861
1.02384
0.99605
0.865077
0.92944
0.929994
0.846007
1.03131
1.20905
1.26313
1.077
0.935153
0.927041
0.923953
0.993185
1.02386
1.126
1.10107
1.11583
1.08447
1.017
0.954309
0.992798
1.07782
1.13866
1.21246
1.18379
1.13036
0.954466
1.00644
1.01737
1.3449
1.28789
1.31694
1.77555
1.77127
3.37374
4.1602
4.12954
4.03342
3.84087
3.58507
3.47513
1.00004
1.00107
1.01968
1.01484
0.997236
0.855601
0.938322
0.977145
1.08278
1.03413
1.007
1.01167
0.688652
0.596278
0.61005
0.885584
1.03227
0.999851
1.03869
1.05433
1.15232
1.14412
1.12926
1.08805
1.05316
1.05743
1.07153
1.07374
1.08063
1.13802
1.07118
1.12564
1.11048
1.1398
1.11335
1.0812
1.21698
1.50984
1.3892
1.42655
1.68686
3.4053
4.16427
4.10311
4.00347
3.81565
3.55679
3.4478
0.999962
0.998883
0.981581
0.986529
0.993849
1.17866
1.08517
1.02926
0.989231
0.986968
0.976642
0.983408
1.24408
1.25294
1.16833
1.06468
1.05256
0.821191
0.926024
0.867576
0.798731
0.941772
0.945235
0.996401
0.987715
1.05626
1.04185
1.04764
1.14097
1.16379
1.2451
1.153
1.06675
1.06946
1.0539
1.05609
1.1333
1.56406
1.46315
1.39109
1.57936
3.38572
4.1147
4.04253
3.95828
3.7849
3.52902
3.42522
1.00004
1.00071
1.01746
1.026
1.00763
0.89308
0.936979
0.971505
1.02062
1.00585
0.997277
0.966599
1.01286
1.07905
1.0705
1.03404
1.02069
1.37581
1.28864
1.35959
1.49729
1.27383
1.20987
1.04522
1.03621
0.999349
1.02017
1.01759
0.994879
1.0318
1.05903
1.07489
1.05296
1.03337
1.05521
1.06656
1.18002
1.5745
1.46339
1.46836
1.60881
3.23689
4.03705
3.97779
3.91026
3.75467
3.51305
3.41471
0.99994
0.998901
0.981635
0.968655
0.989468
1.07723
1.06479
1.07454
0.994095
0.944384
0.818515
0.938366
1.0107
1.14551
1.08792
1.04756
1.04559
1.04363
1.09726
1.16094
1.20006
1.17187
1.14752
1.04347
1.05951
1.04979
1.06292
1.05672
1.04466
1.04472
1.05525
1.10958
1.16831
1.15229
1.12085
1.1241
1.1449
1.4504
1.4866
1.54138
1.31674
2.90061
4.00135
3.91368
3.84859
3.72057
3.50328
3.41487
1.00007
1.00137
1.02068
1.03501
1.00928
0.934484
0.937038
0.923385
0.998115
1.19795
1.49745
1.25936
1.05733
0.914591
0.926912
0.928
0.939974
1.11841
1.09406
1.07736
1.03586
1.05006
1.10754
1.09941
1.1032
1.09912
1.04922
1.04633
1.03174
1.03864
1.04989
1.50829
1.48215
1.33166
1.20961
1.03243
1.05226
1.06557
1.28928
1.43225
1.26156
2.25311
3.75901
3.82405
3.8004
3.69902
3.50355
3.41277
0.999913
0.99842
0.976234
0.959255
0.992821
1.04677
1.04136
1.04448
0.991056
0.931057
0.839727
0.883153
0.978198
0.979112
0.983245
0.968657
0.958964
0.903744
0.946413
0.936056
0.927661
0.95895
1.08965
1.06258
1.07333
1.07044
1.06273
0.99276
1.00308
0.994302
0.985804
0.567628
0.495117
0.741508
0.86469
0.972216
0.958968
0.98596
1.00143
1.21345
1.26157
1.63099
3.31719
3.71263
3.76005
3.67958
3.49983
3.40451
1.0001
1.00509
1.02819
1.05174
0.999822
0.974554
0.93896
0.929859
0.980917
1.01225
1.02501
1.0456
1.03036
0.964793
0.962407
1.01361
1.03959
1.03256
0.990261
0.910113
0.889238
0.89816
1.06308
1.08363
1.10356
1.09229
1.10946
1.1149
1.10326
1.00637
1.01954
1.05719
1.28216
1.14211
1.08321
1.00908
1.02557
1.02561
1.03092
1.0148
1.40345
1.29915
2.79721
3.63216
3.73076
3.64278
3.47642
3.35545
1.00003
0.990036
0.968801
0.941451
1.0059
1.03543
1.20744
1.15111
1.05362
0.803439
0.891583
0.975242
0.955014
0.961057
0.968501
0.99499
0.986269
0.918661
0.9189
1.05292
1.12932
1.09551
1.09376
1.0537
1.02971
1.04639
1.16596
1.31701
1.18235
1.04092
0.981539
1.02803
1.09817
1.07586
1.07521
1.07022
1.09717
1.09023
1.08093
1.11229
1.13055
1.3115
2.31256
3.49576
3.65068
3.56816
3.41525
3.24661
0.99991
1.01144
1.03219
1.06682
0.988317
0.970256
0.785824
0.876543
0.992331
1.1889
1.08063
0.920631
0.84882
0.745873
0.735695
0.90785
0.934089
0.936509
1.35154
1.55172
1.68587
1.54655
1.34573
1.11515
1.02098
1.03037
0.986787
0.823697
0.787977
0.877461
0.98032
1.11657
1.10381
1.09382
1.0902
1.06299
1.07295
1.08262
1.1272
1.15422
1.10336
1.15375
1.58057
3.35429
3.55411
3.48931
3.32421
3.14238
1.00013
0.988093
0.967176
0.93509
1.01434
1.02935
1.21882
1.12358
1.08174
1.01731
0.995611
1.05392
1.16056
1.66928
1.71341
1.35413
1.16174
0.971734
1.01013
1.07657
1.11189
1.09986
1.07495
1.06101
1.01158
0.997177
1.00177
1.10174
1.26036
1.16735
1.17847
1.22411
1.16059
1.15643
1.13776
1.10914
1.02118
1.06385
1.10569
1.15064
0.93079
0.961371
1.30244
3.14549
3.40111
3.38463
3.33623
3.22268
0.999943
1.0103
1.03303
1.06272
0.978612
0.969122
0.860567
0.901355
0.990234
1.01862
1.02696
1.03526
1.06172
1.04668
0.995631
0.994547
0.965695
0.963849
0.952178
0.89365
0.851357
0.852682
0.902941
1.0194
1.00054
1.00103
0.99008
0.984341
1.02172
1.04931
1.05555
1.13056
1.13427
1.13681
1.09563
1.1366
1.12185
1.09843
1.15392
1.06532
1.09298
1.05657
1.17195
1.95311
3.25293
3.26189
3.16143
2.97873
0.999962
0.993949
0.969067
0.937245
1.03403
1.06578
1.0986
1.12622
1.018
0.950274
0.95924
0.990764
0.999759
0.994957
0.988986
0.998469
0.995826
0.996121
0.987654
0.915356
0.966962
0.951719
1.03069
1.04627
1.03154
1.02528
1.02299
0.988935
0.953609
0.929956
0.947528
0.998567
1.12166
1.26455
1.2936
1.25681
1.13403
1.1716
1.15307
1.13296
1.07348
1.06567
1.0407
1.31176
2.4951
3.17575
3.06001
2.82312
1.00004
1.00213
1.02829
1.05711
0.967819
0.907237
0.9423
0.906673
0.989124
1.05879
1.05929
1.02286
1.00934
0.959332
0.927551
0.963793
0.9597
0.998286
1.0461
1.31212
1.26611
1.23966
1.17628
1.12518
0.945514
0.966901
1.01251
0.99447
0.982811
0.98884
1.04455
1.06781
1.24705
1.22135
1.208
1.08367
1.11207
1.09972
1.09416
1.04998
1.05501
0.992398
0.995274
1.06609
1.56096
2.8699
3.01953
2.78758
0.999864
0.998363
0.97416
0.958168
1.00388
1.09909
1.06591
1.02744
0.992283
0.986851
0.984092
1.00123
1.00671
1.03578
1.10794
1.08136
1.09373
1.05957
1.04412
1.07655
1.07636
0.965964
0.953042
0.974512
0.941372
0.958814
1.01879
1.26896
1.43812
1.40616
1.32248
1.27752
1.18103
1.16404
1.11773
1.09012
1.05048
1.03817
1.02507
1.03026
1.00356
0.985177
1.01868
0.931021
1.25118
2.0806
2.82962
2.61198
1.00009
1.00123
1.02415
1.01919
1.0101
0.939317
0.886108
0.932862
1.00627
1.02765
0.982953
1.00063
1.00917
1.03836
1.05558
1.05035
1.04584
1.03985
1.02533
1.01679
0.958864
0.968405
1.14603
1.15743
1.23485
1.2152
1.13018
1.06356
1.08222
1.11969
1.13035
1.15265
1.14384
1.08998
1.09716
1.08669
1.06534
1.04794
1.05949
1.01566
0.990659
0.996616
0.828287
0.853506
1.42775
1.33552
1.83288
2.21289
0.99996
0.999002
0.978533
0.980539
0.982931
1.02983
1.29659
1.15749
1.04951
0.961942
0.987628
1.22825
1.31129
1.27764
1.14863
1.01249
1.00748
0.989106
0.994994
1.02996
1.0351
1.01932
1.05466
1.05064
1.04694
1.04481
1.04035
0.968338
0.961268
0.965852
1.07023
1.0787
1.08974
1.11459
1.10953
1.08169
1.00727
0.941706
0.96274
0.990102
1.00897
1.03401
0.993344
0.935474
1.05733
1.07311
1.24342
1.67065
1.00002
1.00032
1.01759
1.0384
1.01804
0.975909
0.668968
0.815357
1.00956
1.03951
1.01974
0.809002
0.792686
0.766462
0.880181
0.923417
0.970872
1.05146
1.1065
1.14727
1.13633
1.12146
1.05415
0.98066
0.903073
0.909021
0.946886
1.02762
1.02278
1.0295
1.03642
1.09875
1.07368
1.02605
0.909311
0.980473
1.03776
1.04347
1.02586
1.02779
1.01294
1.01493
1.0201
1.03205
1.03676
1.04411
1.06767
1.35575
0.999966
0.999695
0.98422
0.951828
0.971689
1.04436
1.2581
1.15774
0.985226
0.973881
1.00441
0.986137
0.987035
1.03186
1.00382
0.976003
0.980438
0.983501
1.00335
1.07848
1.13801
1.16488
1.20322
1.23934
1.23119
1.20594
1.08424
1.06356
1.08139
1.07069
1.07616
1.06951
1.08133
1.08158
1.0817
1.07166
1.09266
1.09044
1.11847
1.09572
1.08486
1.042
1.05048
1.06663
1.18014
1.15464
1.1471
1.10941
1.00002
1.0003
1.01457
1.05105
1.02604
0.914908
0.95384
0.952718
0.993067
1.0044
1.0965
1.13132
1.08967
1.03821
0.94924
0.970892
0.941878
0.980287
1.07545
1.07331
1.08461
1.12885
1.35399
1.76766
1.76973
1.59576
1.35116
1.02349
1.0699
1.06653
1.06885
1.07984
1.1151
1.10508
1.05929
1.07949
1.07257
1.10407
1.14995
1.16512
1.12825
1.07187
1.08287
1.08069
1.08719
1.09373
1.07475
1.04423
0.999967
0.99962
0.987583
0.955089
0.969017
1.01124
1.09189
1.09278
1.04775
1.03117
0.905063
0.870167
0.875611
0.933026
1.12832
1.15612
1.19528
1.14642
1.10596
1.02443
1.05289
1.04533
1.1023
1.14649
1.11841
1.12297
1.09965
1.07215
1.05922
1.06481
1.0907
1.13966
1.16155
1.14668
1.03295
1.07011
1.06837
1.10085
1.17835
1.17367
1.18311
1.09162
1.07936
1.05119
1.10352
1.04103
1.04606
1.03697
1.00002
1.0007
1.00644
1.03444
1.05767
1.01933
0.843335
0.806588
0.897442
1.00464
1.02262
1.00753
1.02358
1.00172
1.03333
1.03487
1.03675
1.03475
1.13786
1.22756
1.21686
1.19207
1.08935
0.908784
0.911616
0.93776
1.05453
1.05116
1.04951
1.05707
1.07627
1.16755
1.16459
1.14273
1.07983
1.09075
1.12191
1.14237
1.21473
1.20178
1.21251
1.21196
1.06916
1.11952
1.10452
1.06214
1.09257
1.0629
0.999991
0.99892
0.997873
0.977018
0.939435
0.981999
1.15297
1.14697
1.08252
0.941813
0.955689
0.985851
1.04232
1.04155
0.916189
0.897153
0.852808
0.893089
0.915003
1.08144
1.10762
1.29679
1.28827
1.24077
1.2157
1.13244
1.08697
1.06319
1.0652
1.05721
1.08159
1.11812
1.19547
1.17053
1.12095
1.05533
1.12209
1.19583
1.17491
1.19989
1.25971
1.31743
1.24241
1.2668
1.24064
1.1808
1.16071
0.962503
1.00052
1.00178
1.0021
1.00994
1.04319
1.02324
0.958655
0.979125
0.981679
1.15468
1.10963
1.06994
0.995889
0.987636
1.04426
1.08069
1.08822
0.994912
1.01131
1.01449
1.13059
1.20828
1.62186
1.59003
1.52207
1.39298
1.03746
1.04659
1.0436
1.07142
1.0803
1.11874
1.18259
1.16581
1.15177
1.12969
1.09205
1.13716
1.18489
1.2458
1.43026
1.44653
1.45257
1.42146
1.27261
1.28339
1.16702
1.09363
0.998484
0.996247
1.00055
1.00064
0.984059
0.98459
0.991629
0.994053
1.06414
0.958208
0.967624
0.964802
0.987569
0.994114
1.00679
1.03091
1.03199
1.02994
0.829178
0.85687
0.824847
0.912512
0.992727
1.05832
1.10957
1.21242
1.15525
1.08706
1.11873
1.1257
1.12836
1.19782
1.27582
1.26063
1.19522
0.999391
1.06949
1.10936
1.24372
1.21744
1.23121
1.25858
1.23277
1.23436
1.21912
1.16911
1.17398
1.07586
1.00424
1.00428
0.999817
0.988858
0.993455
1.00266
1.01775
1.01732
0.911409
0.94823
0.967839
1.00423
1.06932
0.947441
0.9717
0.958404
0.939434
0.970787
1.16767
1.09964
1.11109
1.09575
1.33932
1.52423
1.46047
1.3878
1.30101
1.13312
0.855793
0.898605
0.982696
1.12789
1.29249
1.27242
1.2086
1.0509
1.13984
1.1239
1.15578
1.2859
1.2285
1.24643
1.21408
1.2312
1.22496
1.21279
1.13464
1.07965
0.99552
0.995588
1.00464
1.01388
1.00957
0.980296
0.985732
0.984644
1.09799
1.07192
1.06942
1.02065
0.963959
1.22481
1.20247
1.11913
1.05196
1.02598
1.06402
1.08828
1.13084
1.22667
1.21403
1.20082
1.17504
1.17164
1.12419
1.12832
1.20562
1.15297
1.13242
1.19883
1.22746
1.23496
1.22698
1.05218
1.14623
1.12505
1.10788
1.1383
1.12032
1.12853
1.15095
1.16673
1.1602
1.138
1.11633
1.02536
1.00367
1.00397
0.999227
0.983719
0.972048
1.01304
1.01081
1.01073
0.938447
0.966593
1.07208
1.05829
1.08699
0.853082
0.760084
0.92242
1.12256
1.12665
1.1504
1.23565
1.20751
1.1661
1.08979
1.01332
1.01693
1.02702
1.04146
1.04393
1.02216
0.998219
1.01079
1.11414
1.23052
1.21319
1.21189
1.00903
1.12143
1.09641
1.08866
1.02992
1.03812
1.03156
1.04747
1.04224
1.05572
1.08247
1.0641
1.06448
0.997261
0.996969
1.00315
1.04856
1.07514
1.02235
0.986921
0.981986
1.02321
1.02238
0.891802
0.88748
0.863858
1.00537
1.17393
1.03569
1.02864
1.07189
1.04471
0.995692
1.03079
1.0243
0.994755
1.00474
1.0211
1.02355
1.01069
1.00431
0.961787
0.976855
1.02865
1.11675
1.19669
1.18499
1.16367
1.17789
1.14786
1.12779
1.08914
0.997541
1.00465
1.04937
1.00941
1.02133
1.03814
1.08336
1.07474
1.07437
1.00151
1.00201
0.983489
0.932368
0.914767
1.02605
1.08633
1.0379
0.952407
0.977075
1.01345
1.07482
1.06441
1.02358
0.97317
0.989845
1.1145
1.20337
1.19946
1.2341
1.03296
1.01891
1.00082
1.01108
1.00724
1.01409
1.02857
1.04698
1.06252
1.05349
1.05359
1.08896
1.11274
1.15571
1.10858
1.14076
1.12647
1.09034
1.10184
1.06417
1.07722
1.03808
1.05377
1.04148
1.05212
1.04854
1.04008
0.97033
0.999361
0.999634
1.03191
1.03235
1.0399
0.91935
0.831246
0.923838
1.09411
1.09206
1.08272
1.04882
1.00469
1.00583
1.01266
1.01281
0.881755
0.827504
0.663778
0.628717
0.641342
0.899204
0.904426
0.902195
0.921141
0.988904
1.05045
1.03006
1.03034
1.03918
1.108
1.11115
1.12557
1.13886
1.13109
1.15059
1.13729
1.14858
1.13954
1.14231
1.11913
1.09796
1.04763
1.06298
1.01768
1.02042
1.02025
1.04489
1.00032
0.99978
0.966989
0.972043
0.962389
1.05508
1.10488
1.15243
1.12061
0.989313
0.994674
0.986133
0.985512
0.993623
1.09717
1.05177
1.0068
0.939222
1.04616
1.1539
1.44174
1.21882
1.13847
1.12242
1.10643
1.082
1.08816
1.06681
1.03836
1.06447
1.06523
1.09317
1.11328
1.15832
1.12833
1.1333
1.15376
1.22994
1.25573
1.25178
1.23065
1.14492
1.04785
1.09512
1.04318
1.06524
1.02347
0.978914
0.999395
0.99934
1.02563
1.06164
1.14414
1.03692
1.01254
0.802577
0.798701
0.916466
1.05447
1.05073
1.02685
1.0032
0.947296
1.02891
1.24656
1.85065
1.51692
1.24282
1.03879
0.992835
0.99567
0.998261
1.00533
1.06649
1.07526
1.08562
1.05105
1.06592
1.13137
1.11184
1.12036
1.19691
1.15453
1.16352
1.20465
1.30375
1.36071
1.33896
1.29629
1.18539
1.08366
1.08693
1.04262
1.05143
1.06591
1.08865
1.00034
1.00041
0.977802
0.91689
0.82259
0.94098
1.00847
1.18351
1.11998
1.0499
0.954065
0.959511
1.05443
1.01667
1.01511
0.969738
0.906917
0.758545
0.878966
0.926184
0.91937
0.924279
0.929554
0.965508
0.979025
1.04997
1.08009
1.0786
1.05418
1.04974
1.0329
1.04434
1.08492
1.05502
1.07637
1.08645
1.15978
1.25399
1.35592
1.3477
1.26042
1.17799
1.17226
1.14793
1.025
1.04165
1.03389
1.03852
0.999326
0.999295
1.02362
1.07385
1.14548
1.05498
0.9453
0.890498
0.938332
0.998511
1.02526
0.995812
0.853797
0.944139
0.940457
0.95576
0.948797
0.871068
0.903594
0.95685
1.04828
1.04306
1.05891
1.05726
1.08444
1.1015
1.13529
1.12611
1.07887
1.0835
1.07189
1.09866
1.09209
1.08186
1.07229
1.07746
1.09822
1.16603
1.35402
1.34801
1.3314
1.17186
1.17532
1.15458
1.12149
1.01832
1.04012
1.0137
1.00011
1.00101
0.976233
0.963866
0.939095
0.952344
1.03315
1.13872
1.08601
1.03699
1.05027
1.05036
1.11665
1.0682
1.01074
0.984597
0.99494
1.05968
1.27355
1.23573
1.25546
1.37806
1.33703
1.28737
1.14593
1.18939
1.17142
1.16792
1.1011
1.11285
1.09662
1.1126
1.09919
1.10374
1.10305
1.10397
1.12337
1.17129
1.31386
1.38032
1.36556
1.28305
1.22969
1.15959
1.12274
1.08266
1.14556
1.12587
0.998586
0.99908
1.01636
1.01695
1.01673
1.01749
0.997582
0.964046
0.965883
0.972902
0.952253
0.977074
0.985806
0.980787
1.22541
1.14795
1.15088
1.07557
1.08131
1.08364
1.08297
1.04883
1.04298
1.04446
1.06678
1.10132
1.16396
1.13249
1.07802
1.07765
1.09818
1.0859
1.11562
1.13918
1.13733
1.13929
1.17102
1.19565
1.27415
1.44921
1.44013
1.43004
1.3125
1.20038
1.1508
1.20317
1.29363
1.28538
1.00039
1.00031
0.999807
0.996181
0.985232
0.984176
0.983515
0.98869
0.994423
1.03099
1.05324
1.03039
1.01452
1.02554
0.910596
0.947023
0.938616
1.02879
1.03071
1.02883
0.998773
0.972655
0.89026
0.858855
0.888774
1.01229
1.07204
1.08241
1.07233
1.0364
1.06463
1.05469
1.04996
1.12905
1.12066
1.09808
1.14547
1.17772
1.28249
1.47182
1.55795
1.5292
1.49116
1.1611
1.27134
1.27791
1.35588
1.35607
1.00094
1.00074
0.996756
0.997958
0.999444
1.01814
1.02057
1.01586
1.01016
0.976515
0.948103
0.967772
1.12846
1.18259
1.10217
1.04001
0.983281
1.14515
1.29458
1.12738
1.03753
1.09637
1.09295
1.09189
1.0201
1.02504
1.03084
1.06914
1.06049
1.0314
1.03324
1.02331
1.03682
1.04313
1.10216
1.29477
1.30452
1.31348
1.35456
1.47298
1.55706
1.59483
1.39978
1.32836
1.32954
1.35585
1.34073
1.41354
0.99915
0.999342
1.0073
1.01918
1.01148
0.980663
0.947517
0.983575
1.03299
1.01613
0.994905
0.984256
0.786867
0.780047
0.734878
0.848747
0.921296
0.659488
0.669671
0.720993
0.881845
1.72059
1.57763
1.52108
1.23584
1.10125
1.02814
1.0416
1.03512
1.01042
1.00994
1.02438
1.02532
1.05375
1.08359
1.19831
1.22663
1.29075
1.31332
1.46888
1.59872
1.56792
1.43008
1.38919
1.39029
1.34554
1.36146
1.43007
1.00023
1
0.988715
0.970523
0.973001
1.04406
1.09486
1.05604
0.99033
0.898868
0.875938
0.927037
1.0783
1.05902
1.1677
1.12123
1.08741
1.20807
1.12231
1.05214
0.904793
0.688348
0.879759
1.02755
1.01933
1.0165
1.06719
1.10866
1.12
1.10282
1.07011
1.02327
1.04635
1.04013
1.08621
1.12262
1.27803
1.27039
1.35978
1.46173
1.61614
1.57406
1.51837
1.33996
1.44214
1.40226
1.39175
1.44613
0.999603
0.999685
1.01668
1.03478
1.09418
0.966239
0.944299
0.956841
1.03261
1.11983
1.12709
1.08592
1.07817
1.00031
1.00999
1.00753
1.16426
1.08677
1.06904
0.994245
0.976285
0.898207
0.905911
0.924455
0.926561
1.02565
1.07229
1.24385
1.27116
1.18005
1.12692
1.04935
1.01391
1.04839
1.05756
1.14567
1.18163
1.30415
1.36175
1.59659
1.56092
1.57526
1.54236
1.26678
1.35374
1.30907
1.2934
1.35711
1.00005
1.00056
0.971186
0.948253
0.838941
0.942357
0.991838
1.15825
1.20567
1.11143
1.05332
1.01841
1.01649
1.01209
1.00035
0.99054
0.767752
0.831271
0.968486
0.982189
0.945653
0.95472
0.963372
0.960093
0.985296
0.934414
0.920003
0.879739
0.884519
1.03916
1.0225
1.02417
1.03714
1.02906
1.04572
1.07738
1.22073
1.2793
1.43079
1.58605
1.5883
1.58271
1.55121
1.45002
1.13423
1.18315
1.18373
1.24112
0.999893
0.998944
1.03485
1.05658
1.20626
1.11299
1.0208
0.754806
0.675677
0.849891
1.07933
1.07461
1.05001
1.08833
1.08846
1.05465
1.09386
1.13595
1.07091
1.01854
0.858003
0.935492
0.943451
1.07118
1.0639
1.05032
1.01077
1.01437
1.00558
1.04699
1.08605
1.05001
1.03844
1.03943
1.03238
1.04929
1.09158
1.2595
1.45357
1.5742
1.56417
1.55507
1.47572
1.3889
1.28759
1.34242
1.40843
1.37767
1.00003
1.00118
0.963521
0.949218
0.797909
0.91036
1.00238
1.15572
1.16968
1.05171
0.965307
0.942163
0.973706
1.20502
1.32125
1.32402
1.19158
1.07874
1.02794
1.0838
1.32314
1.23299
1.18251
1.1498
1.13408
1.13283
1.12075
1.10478
1.04941
0.962649
0.947101
0.986571
1.00391
1.01412
1.01135
1.01641
1.07878
1.23606
1.50402
1.52309
1.49494
1.47091
1.36747
1.39335
1.38639
1.40922
1.59138
1.54035
0.999862
0.998943
1.03404
1.05609
1.24733
1.03285
0.974777
0.985057
1.06528
1.06311
1.03231
0.983669
0.93064
0.857625
0.896044
0.891378
1.01295
1.00717
1.00607
1.0224
1.04932
1.12573
1.1016
1.12638
1.12044
1.11454
1.1017
1.09951
1.05595
1.01781
1.02609
1.02252
1.01851
1.00742
1.01822
1.02592
1.08475
1.18988
1.40387
1.39549
1.36076
1.31924
1.2253
1.28332
1.26266
1.27886
1.31776
1.38459
1.00004
1.00077
0.965907
0.946746
0.768816
0.962193
1.02408
1.1137
1.01296
0.998147
1.02611
1.02343
0.962955
0.898365
0.902846
0.938674
1.00943
1.01012
1.00471
0.933143
0.940939
0.927624
0.937612
0.952009
1.14043
1.17005
1.15346
1.12984
1.06172
1.02822
1.02858
1.02611
0.989228
0.973187
0.977035
0.993731
1.0854
1.19977
1.28166
1.27463
1.25457
1.14677
1.19433
1.17622
1.18763
1.19736
1.24183
1.19804
0.999748
0.999285
1.03156
1.05244
1.2679
1.07291
1.01658
0.897501
1.03177
1.11662
1.05197
0.969938
0.720851
0.890005
1.02535
1.00598
1.00715
1.03781
1.04672
1.0544
1.00253
1.01215
1.01508
1.0592
1.03623
1.04302
1.06541
1.0687
1.06554
1.04991
1.03759
1.0464
1.04026
1.05179
1.06059
1.09689
1.1089
1.1659
1.1663
1.16299
1.14075
1.10583
1.10223
1.10644
1.12644
1.11671
1.12426
1.12417
1.00008
1.00023
0.970646
0.937704
0.788182
0.947676
0.976161
0.981401
0.882953
0.842497
0.90474
1.00635
1.61638
1.39705
1.31441
1.13936
1.03563
1.05708
1.05709
1.05578
1.05782
1.09342
1.11738
1.10792
1.11362
1.09805
1.09872
1.09558
1.09151
1.04437
1.05618
1.04772
1.09653
1.15713
1.21393
1.18077
1.17195
1.11224
1.10541
1.06503
1.07899
1.06995
1.07538
1.07018
1.06996
1.04419
1.04729
1.03643
0.999723
0.999717
1.02549
1.10374
1.13358
1.00349
0.844541
0.839066
1.00465
1.02677
1.0044
1.00864
1.09464
1.07251
1.05692
0.98763
0.999138
1.02135
1.09251
1.07054
1.02132
0.976814
0.935737
0.955705
0.978859
0.987234
1.11721
1.12241
1.11709
1.03197
1.07566
1.06098
1.04163
0.963019
0.977937
1.02821
1.10064
1.08119
1.06304
1.07772
1.07653
1.06969
1.06466
1.04214
1.02461
1.02548
1.01041
0.971052
1.00024
1.00019
0.976387
0.888763
0.948406
1.05614
1.49567
1.35356
1.18578
1.08201
1.0606
1.05748
1.01427
0.954131
0.96021
0.970229
1.02364
1.05646
0.976338
0.908946
0.922168
0.929165
0.942945
1.01367
1.01887
1.13431
1.16022
1.16185
1.09593
1.10373
1.08529
1.06227
1.01905
1.0511
1.07087
1.0719
1.08175
1.08457
1.06652
1.04644
1.036
1.05738
1.07065
1.06991
1.13238
1.16786
1.16391
1.08759
0.99869
0.998654
1.01887
1.1145
1.10449
0.957492
0.827524
0.928234
1.17677
1.10185
1.14105
1.05231
0.95406
0.954864
0.960917
0.959605
0.911371
0.906195
0.972044
1.01992
1.01702
0.998414
1.00209
1.00509
1.0319
1.05443
1.19204
1.142
1.15492
1.22267
1.21472
1.18428
1.21301
1.19581
1.19216
1.11596
1.12538
1.08205
1.07459
0.96737
0.941689
0.979032
0.991123
1.16308
1.29468
1.50058
1.42112
1.42513
1.00158
1.00422
0.993395
0.869378
0.831363
0.96484
0.989653
0.98952
0.530559
0.730063
0.741389
0.923565
1.15089
1.14819
1.15438
1.1101
1.05741
1.00689
1.05656
1.11703
1.09828
1.09012
1.02978
1.0394
1.04064
1.09229
1.1202
1.1453
1.16698
1.2982
1.34108
1.39953
1.3996
1.32819
1.30673
1.24766
1.20471
1.09681
1.12305
1.16585
1.20048
1.04566
0.882876
0.845645
0.975632
1.14734
1.13657
1.1506
0.997895
0.994527
0.997968
1.11759
1.15757
1.04507
0.971151
0.97396
1.42926
1.27298
1.15077
1.02972
1.04306
1.06401
1.13581
1.1328
1.14148
1.1475
1.14743
1.1188
1.01723
1.03025
1.03343
1.11926
1.12109
1.13205
1.13034
1.11406
1.15833
1.17498
1.24956
1.481
1.48563
1.49811
1.44685
1.33567
1.30926
1.1645
1.18211
1.14096
1.14242
1.37457
1.33592
1.2675
1.09917
1.1028
1.08966
1.06422
1.00067
1.01086
1.01002
0.97557
0.927014
0.974538
1.03528
1.0325
1.04226
1.0362
0.999589
0.99855
0.988786
1.04802
1.14943
1.11177
1.05999
1.06052
1.04237
1.04118
1.05953
1.09256
1.21025
1.23611
1.22946
1.20382
1.10678
1.11336
1.11405
1.10086
1.22932
1.55732
1.53034
1.52136
1.38168
1.41881
1.38747
1.26429
1.22195
1.08985
0.998532
0.87644
0.994699
1.07781
1.14346
1.12119
1.0827
1.06613
0.999818
0.988441
0.988913
0.991668
1.0154
1.0219
1.02021
0.973697
0.931691
0.932075
1.02146
1.04356
0.95538
0.797547
0.852519
0.922096
0.899642
0.870258
0.903726
0.914239
1.12924
1.10302
1.10961
1.10704
1.08573
1.08842
1.04815
1.05287
1.04463
1.07303
1.23441
1.53705
1.47731
1.50673
1.40599
1.36249
1.30308
1.25634
1.12359
1.14895
1.12158
1.06381
0.988843
1.00582
1.02926
1.08599
1.05779
1.06647
1.0002
1.00685
1.0256
1.02154
0.996905
1.00693
1.00586
1.03733
1.07676
1.11955
1.02242
0.960878
0.998876
1.14858
1.06771
1.03398
1.0981
1.10866
1.08795
1.12459
1.05519
0.948499
0.95155
0.946888
0.974737
0.969635
0.981004
0.986458
1.02161
1.05756
1.34503
1.51518
1.548
1.52181
1.30933
1.37807
1.33488
1.1629
1.16968
1.13533
1.11396
1.00277
0.985917
0.989912
1.01359
0.997294
1.00426
0.999722
1.00002
0.986337
0.946618
0.966437
0.978437
1.12689
1.11307
1.03316
1.01816
0.96423
0.981694
0.988783
1.03561
1.0376
0.980756
0.94024
0.97891
0.950213
0.980272
0.970404
0.74767
0.842788
0.845698
0.970042
0.970588
1.01769
1.01541
1.01852
1.02279
1.05951
1.20741
1.36086
1.34143
1.23006
1.2352
1.21771
1.17838
1.14698
1.07754
1.08956
1.0382
1.02467
1.03081
1.02826
1.02714
1.04964
1.07201
1.05756
0.999901
1.0153
1.07797
1.06547
1.01946
0.711977
0.70074
0.875062
1.13175
1.12011
1.06794
1.03279
0.995245
0.994385
1.083
1.12714
1.09437
1.11372
1.0721
1.10126
1.27954
1.20743
1.1618
0.98111
0.993144
0.995872
0.992736
1.01935
1.02185
1.05369
1.05336
1.04786
1.0659
1.03742
1.0689
1.0617
1.08136
1.04864
1.06004
1.01382
1.01655
1.01412
1.02409
1.02676
1.04712
1.08352
1.0764
1.07001
1.00002
0.986777
0.908518
0.898555
1.03146
1.21562
1.20115
0.946311
0.744534
0.803485
0.889289
1.07675
1.05296
1.00443
1.00662
1.03859
1.07271
1.07231
1.04429
1.04659
1.06077
1.06034
1.0516
1.03866
1.00646
1.0125
1.01787
1.01756
0.994629
1.02622
1.0146
1.01699
1.01412
1.04139
1.06088
1.08019
1.04789
1.05675
1.02667
1.02246
1.03586
1.0487
1.05181
1.0568
1.12848
1.12757
1.13848
1.10228
0.999608
1.01999
1.07603
1.05158
0.843401
0.933026
0.944039
1.16376
1.20751
1.10727
1.00286
0.974208
0.971547
0.90789
0.874071
0.915407
1.0117
1.05669
1.08287
1.08138
1.1059
1.10182
1.07745
1.08587
1.09862
1.11606
1.114
1.09272
1.06938
1.00926
1.02104
1.02135
1.02063
1.0264
1.02228
1.01378
1.02595
1.02036
1.04549
1.04104
1.07129
1.07988
1.11683
1.16818
1.19588
1.23998
1.21381
1.18765
0.999763
0.971632
0.973774
0.984232
1.18532
1.17124
1.28518
1.21372
1.10673
1.01364
0.943107
0.925653
0.940156
1.11858
1.18295
1.09793
0.99122
0.999324
0.999191
1.02803
1.14716
1.12433
1.27514
1.18379
1.20431
1.18456
1.1809
1.14169
1.08254
0.962041
0.966784
0.99242
1.00493
0.999141
1.00298
0.992836
1.00413
0.993015
1.03796
1.0281
1.05664
1.06454
1.18185
1.34401
1.43408
1.39942
1.3857
1.26544
1.00085
1.02925
1.02779
1.03377
0.857223
0.853371
0.783973
0.787905
0.82198
0.990617
1.06233
1.03226
1.02001
1.04635
1.0626
1.0555
1.02541
0.993848
0.977273
0.941796
0.879092
0.887222
0.850398
0.976316
1.15636
1.23016
1.12993
1.13606
1.13401
1.15925
1.13862
1.09546
1.04425
1.02106
1.00555
1.0148
1.02562
1.15004
1.14435
1.18719
1.24844
1.45379
1.53321
1.67192
1.66442
1.61597
1.35065
1.35915
1.00064
0.971758
0.950874
0.968771
1.18402
1.09992
1.05066
1.26025
1.18199
1.05588
1.01495
0.99975
1.0072
1.05644
1.08213
1.03597
1.05825
1.04674
1.03707
0.968932
0.923133
0.907736
0.938072
1.1466
1.13591
1.16318
1.1719
1.11107
1.12309
1.05267
1.03914
1.02214
1.01551
1.01614
1.02808
1.05435
1.18576
1.24459
1.31959
1.44747
1.65475
1.77953
1.75066
1.75574
1.73944
1.66523
1.5592
1.40675
1.00075
1.02896
1.0257
1.00849
0.856261
0.898415
0.831381
0.761086
0.915953
0.990968
1.15024
1.12417
1.11846
0.975005
0.957674
0.975913
0.971316
0.987851
0.970263
0.953688
0.966766
0.963234
0.968064
1.08962
1.0763
1.08259
1.08936
1.08262
1.0736
1.05353
1.03801
0.977666
0.991776
1.0127
1.02698
1.10531
1.20322
1.30329
1.34471
1.66486
1.70832
1.73087
1.73101
1.7328
1.75114
1.72669
1.62801
1.5551
1.00005
0.974157
0.973936
0.961451
1.05441
1.3411
1.49221
1.22582
1.03369
1.02237
0.996135
1.00897
0.985927
0.995692
0.994144
0.998696
0.991947
0.904404
0.941519
0.983046
1.09299
1.14586
1.14185
1.04402
1.03114
1.0125
1.0132
1.01131
0.960667
0.967647
0.955465
1.02308
1.02166
1.03027
1.05066
1.10316
1.20972
1.3186
1.47062
1.5804
1.81595
1.74375
1.78512
1.75834
1.78424
1.76472
1.73137
1.52461
0.999484
1.02016
1.06982
1.07429
0.991732
0.797887
0.793961
0.907182
0.972361
1.07284
1.06271
1.05881
1
0.99113
0.960009
0.964455
0.969077
1.13204
1.0982
1.10162
1.12893
1.11947
0.987161
1.00886
0.987804
1.01158
1.0274
1.0099
1.01137
1.01081
1.01899
1.01489
1.01934
1.04035
1.08936
1.15334
1.2153
1.29454
1.45615
1.52455
1.71346
1.66575
1.74149
1.73196
1.74192
1.73028
1.68987
1.62525
1.00016
0.981497
0.918438
0.94741
1.03926
1.02706
1.02785
1.05765
1.04696
0.941203
0.924667
0.932535
1.00901
1.10488
1.17349
1.12795
1.07113
1.07529
1.07246
1.02973
1.03043
1.02202
0.999576
1.03147
1.0268
1.01855
1.02096
1.02123
1.04065
1.03084
1.04211
1.03938
1.04288
1.04832
1.14776
1.1778
1.25353
1.33435
1.43383
1.42406
1.44922
1.41987
1.54791
1.55651
1.64196
1.6029
1.62994
1.50017
0.999753
1.02089
1.0641
1.02288
0.926493
0.949933
0.957828
0.965925
1.00184
1.03261
1.01701
1.02486
1.02002
1.0097
0.989208
1.01216
1.10958
1.08728
1.07918
0.999506
0.984885
0.957124
0.991586
0.992172
0.989317
1.00677
1.00154
1.01761
1.02967
1.03895
1.04493
1.08516
1.08955
1.09404
1.08831
1.14544
1.1843
1.2986
1.32472
1.32738
1.27682
1.32856
1.32723
1.44292
1.53208
1.59977
1.49951
1.41534
0.999285
0.971685
0.97779
0.978855
1.03891
1.05446
1.19499
1.13679
1.02297
0.968393
0.972755
0.973945
0.994552
0.916558
0.942373
0.939717
0.911121
0.935355
0.932922
0.937985
0.985217
1.03784
1.24694