/*--------------------------------*- C++ -*----------------------------------*\
| =========                 |                                                 |
| \\      /  F ield         | OpenFOAM: The Open Source CFD Toolbox           |
|  \\    /   O peration     | Version:  v1912                                 |
|   \\  /    A nd           | Website:  www.openfoam.com                      |
|    \\/     M anipulation  |                                                 |
\*---------------------------------------------------------------------------*/
FoamFile
{
    version     2.0;
    format      ascii;
    class       volVectorField;
    location    "0.1";
    object      U;
}
// * * * * * * * * * * * * * * * * * * * * * * * * * * * * * * * * * * * * * //

dimensions      [0 1 -1 0 0 0 0];


internalField   nonuniform List<vector> 
16128
(
(3.00007 -2.93153e-05 0)
(3.00042 0.000137394 0)
(3.0001 0.000599634 0)
(2.99729 0.00127349 0)
(2.99819 -0.0011917 0)
(3.00036 -0.00239306 0)
(3.00101 -0.00491125 0)
(3.00158 -0.00350499 0)
(2.99913 0.00291526 0)
(3.00483 0.00664767 0)
(3.00619 0.00568311 0)
(3.00152 0.000856959 0)
(3.01145 -0.0271509 0)
(2.96431 -0.0513783 0)
(2.92484 -0.101314 0)
(2.98661 -0.0772274 0)
(2.9643 -0.0488379 0)
(3.00861 -0.00248471 0)
(2.9963 0.0285968 0)
(3.01508 0.0366508 0)
(3.00287 0.038973 0)
(2.99379 0.0377265 0)
(2.99038 0.0283087 0)
(2.99145 0.0137175 0)
(2.99539 -0.0134595 0)
(3.01569 -0.0258344 0)
(3.02041 -0.0229662 0)
(3.01524 -0.0161177 0)
(3.00666 -0.00747318 0)
(3.00251 -0.00827417 0)
(2.9967 -0.0115855 0)
(3.00364 -0.0217203 0)
(3.01151 -0.0281459 0)
(2.986 0.00546984 0)
(3.01991 0.0605014 0)
(2.96811 0.0992732 0)
(2.99731 0.112505 0)
(3.02265 0.0976888 0)
(3.23378 0.0535689 0)
(2.99756 0.114081 0)
(1.83852 0.0359053 0)
(0.314982 0.00676146 0)
(-0.00667312 0.0100877 0)
(0.0225999 0.00534105 0)
(0.0694368 0.00427677 0)
(0.0499989 0.00298872 0)
(0.0117932 0.00143695 0)
(-0.00611515 0.000472724 0)
(3.00053 9.26295e-06 0)
(2.99946 -6.7356e-05 0)
(2.99972 -0.00035763 0)
(2.99829 -0.000308188 0)
(2.99938 -0.000559949 0)
(3.00218 0.00351974 0)
(3.00972 0.00993725 0)
(2.99797 0.00795345 0)
(3.00972 0.00658632 0)
(2.99768 -0.00137897 0)
(2.99656 -0.00253578 0)
(3.00776 -0.00547288 0)
(2.99905 -0.00727706 0)
(3.012 0.00948691 0)
(3.14837 0.0296665 0)
(3.12716 0.0338611 0)
(3.12299 0.0153193 0)
(3.02501 0.0191354 0)
(3.02247 0.0229653 0)
(2.99933 0.0240521 0)
(3.00268 0.0246844 0)
(3.00269 0.0271106 0)
(3.00756 0.023986 0)
(3.00124 0.0193309 0)
(3.00169 0.00544653 0)
(2.97719 -0.0336883 0)
(3.0012 -0.0510476 0)
(3.01429 -0.0516694 0)
(3.01439 -0.0511202 0)
(3.02477 -0.05373 0)
(3.01111 -0.0560949 0)
(3.01185 -0.051337 0)
(2.97098 -0.0365197 0)
(2.98739 -0.00448296 0)
(2.95393 0.0295488 0)
(2.99464 0.034917 0)
(2.99307 0.0288205 0)
(2.99339 0.00956367 0)
(3.00046 -0.019971 0)
(2.92275 0.0177488 0)
(1.88111 -0.0382266 0)
(0.340767 -0.0371536 0)
(0.00202736 0.00698186 0)
(0.0231009 0.0216189 0)
(0.0686256 0.0244971 0)
(0.0491014 0.0227885 0)
(0.0112954 0.0193774 0)
(-0.00561246 0.0167307 0)
(3.0001 1.64601e-05 0)
(3.00093 -5.74253e-05 0)
(3.00095 0.000827267 0)
(2.99886 0.000436302 0)
(3.00242 0.000217298 0)
(2.98857 -0.00376509 0)
(2.96427 -0.00925998 0)
(2.972 -0.00689386 0)
(2.98403 -0.00203836 0)
(2.99011 0.0103298 0)
(3.00342 0.0301073 0)
(3.01728 0.0256203 0)
(3.02916 0.0336758 0)
(3.02254 0.026926 0)
(2.93954 0.0430584 0)
(2.95256 0.0225989 0)
(2.88741 0.0137164 0)
(2.94613 0.000491857 0)
(2.97275 -0.0015987 0)
(2.99565 -0.000588761 0)
(2.99704 0.00154093 0)
(3.00799 0.00468811 0)
(3.00224 0.0117652 0)
(3.00634 0.0140806 0)
(3.00579 0.0112426 0)
(2.94193 -0.0287077 0)
(2.91132 -0.101451 0)
(2.9595 -0.124643 0)
(3.01605 -0.131438 0)
(3.04894 -0.126536 0)
(3.0418 -0.120838 0)
(3.03359 -0.084195 0)
(3.01986 -0.0304583 0)
(2.97631 -0.0322005 0)
(3.00309 -0.0324988 0)
(2.96167 -0.0463938 0)
(2.99023 -0.0943237 0)
(3.0208 -0.142571 0)
(3.08879 -0.131953 0)
(2.99244 -0.186299 0)
(1.97347 -0.111997 0)
(0.400344 -0.0371854 0)
(0.0368334 -0.00753659 0)
(0.037889 0.0313727 0)
(0.0772591 0.0419216 0)
(0.0539031 0.0429713 0)
(0.0137592 0.0429067 0)
(-0.00473574 0.040944 0)
(2.99998 -1.985e-05 0)
(2.99981 5.38152e-05 0)
(2.99715 -0.000426417 0)
(2.9982 -0.00115344 0)
(2.99951 0.00164715 0)
(3.01119 -0.0016361 0)
(3.04529 -0.00669359 0)
(3.03963 -0.0063673 0)
(3.02292 -0.0150135 0)
(3.02252 -0.011301 0)
(2.9529 -0.0340123 0)
(2.95698 -0.0280242 0)
(2.94352 -0.0224894 0)
(2.96059 -0.0385894 0)
(3.02177 -0.0677761 0)
(3.07482 -0.0562467 0)
(3.04646 -0.0427324 0)
(3.0285 -0.0197122 0)
(2.99536 -0.0170663 0)
(2.99882 -0.0149012 0)
(2.99794 -0.0172309 0)
(3.0038 -0.0213975 0)
(3.0013 -0.0249854 0)
(2.99674 -0.0196313 0)
(3.01362 0.000456052 0)
(2.95669 0.0560435 0)
(3.00396 0.0983249 0)
(3.08581 0.0789481 0)
(3.12252 0.0185045 0)
(3.08372 -0.0118539 0)
(3.06177 -0.0343364 0)
(3.02937 -0.0394553 0)
(3.04975 -0.027435 0)
(3.04393 -0.0239248 0)
(3.01736 -0.0262108 0)
(3.01007 -0.0385134 0)
(2.93216 -0.103936 0)
(2.98587 -0.164897 0)
(3.19375 -0.205041 0)
(2.96093 -0.21388 0)
(1.94568 -0.101784 0)
(0.390276 0.0333916 0)
(0.10621 -0.0355084 0)
(0.0723101 0.0458454 0)
(0.0907896 0.0625384 0)
(0.0625979 0.0657297 0)
(0.0168396 0.0678088 0)
(-0.00435951 0.0667536 0)
(2.99996 3.80975e-06 0)
(3.0008 -9.77486e-06 0)
(3.00183 -9.2453e-05 0)
(3.00627 0.000521424 0)
(2.99833 -0.00150493 0)
(2.99244 0.00155627 0)
(2.98732 0.0107872 0)
(2.99125 0.0121786 0)
(3.0063 0.0145699 0)
(3.00186 -0.00413311 0)
(3.06013 -0.0199841 0)
(3.09237 -0.00703295 0)
(3.11027 -0.0272338 0)
(3.03558 -0.0232717 0)
(3.02815 -0.0121507 0)
(3.01666 0.0207114 0)
(3.03567 0.0269366 0)
(3.02427 0.0230727 0)
(3.02834 0.0094164 0)
(3.01332 -0.0112892 0)
(3.01403 -0.0334124 0)
(2.9991 -0.0475245 0)
(2.99881 -0.0549438 0)
(3.0042 -0.0526842 0)
(2.99467 -0.0295017 0)
(3.04955 0.0384867 0)
(2.99718 0.0985549 0)
(2.99975 0.0906944 0)
(2.93012 0.0619663 0)
(2.93386 0.0405776 0)
(2.98945 0.00460991 0)
(2.97989 -0.0217359 0)
(3.03479 -0.0337477 0)
(3.0389 -0.0168311 0)
(3.03642 -0.0181231 0)
(3.0382 -0.0305857 0)
(2.92808 -0.0792475 0)
(2.96804 -0.128436 0)
(3.08415 -0.176851 0)
(2.89208 -0.149907 0)
(1.99555 -0.056948 0)
(0.408737 0.0443247 0)
(0.199603 -0.0204654 0)
(0.129252 0.0657287 0)
(0.11436 0.0911236 0)
(0.0750993 0.0951915 0)
(0.021404 0.0954517 0)
(-0.00391722 0.0951112 0)
(3.00003 -1.49059e-06 0)
(2.99971 -4.78012e-05 0)
(2.99788 0.000158853 0)
(2.99404 0.00092906 0)
(3.00148 -0.00169354 0)
(3.01237 0.00553177 0)
(3.00635 0.00246449 0)
(3.00455 -0.000983033 0)
(2.9839 0.00166565 0)
(2.97309 0.0133975 0)
(2.97019 0.0417583 0)
(2.9736 0.0351843 0)
(2.98434 0.0555256 0)
(3.00739 0.0643048 0)
(3.07351 0.0591046 0)
(3.0552 0.0381478 0)
(3.01279 0.0241809 0)
(2.99698 0.00989265 0)
(2.95272 -0.00550716 0)
(2.96035 -0.0241393 0)
(2.9445 -0.0463528 0)
(2.97986 -0.0551304 0)
(2.99736 -0.036015 0)
(3.02468 -0.0248671 0)
(2.99619 -0.0279546 0)
(3.03469 -0.0499099 0)
(3.0179 -0.0653066 0)
(3.00494 -0.0567846 0)
(2.96903 -0.0206341 0)
(2.97958 -0.0104795 0)
(3.00365 0.00126268 0)
(3.00964 -0.0041363 0)
(3.02407 -0.018633 0)
(3.02746 -0.0217376 0)
(3.06122 -0.0253465 0)
(3.05644 -0.0385035 0)
(2.94104 -0.0614796 0)
(2.95173 -0.102541 0)
(3.02417 -0.113989 0)
(2.87566 -0.0608852 0)
(2.13477 -0.0337626 0)
(0.499367 0.068944 0)
(0.28712 0.0566645 0)
(0.187145 0.111714 0)
(0.132812 0.130904 0)
(0.0808661 0.132196 0)
(0.0219493 0.128683 0)
(-0.00394267 0.127314 0)
(3 -1.97521e-06 0)
(3.00032 2.99715e-05 0)
(3.00297 -0.000137009 0)
(3.0018 -0.000876115 0)
(2.9983 0.00196004 0)
(2.97005 -0.00582936 0)
(3.001 -0.00414823 0)
(2.97713 -0.00445697 0)
(3.01265 -0.0107556 0)
(3.00593 -0.00782608 0)
(3.00653 -0.00774712 0)
(3.00037 -0.0119057 0)
(2.91817 -0.0129074 0)
(2.922 -0.0030031 0)
(2.89396 0.00624437 0)
(2.94444 -0.00514392 0)
(2.95021 -0.0236408 0)
(2.95688 -0.0101682 0)
(2.97211 0.00393888 0)
(2.97422 0.0326323 0)
(2.9958 0.0426594 0)
(3.02742 0.0342965 0)
(3.07769 0.0321927 0)
(3.06694 0.0310376 0)
(3.06035 0.0176715 0)
(3.01837 -0.0120583 0)
(2.99974 -0.0208214 0)
(2.99146 -0.0104406 0)
(2.99294 -0.00523476 0)
(2.97645 -0.00194693 0)
(2.985 -0.00255836 0)
(2.98844 0.00897201 0)
(3.01446 0.0136982 0)
(3.07279 -0.010177 0)
(3.06843 -0.0103288 0)
(3.06045 -0.0223384 0)
(2.99871 -0.00937132 0)
(2.85409 -0.0555646 0)
(2.88276 -0.0737435 0)
(2.88562 0.0146795 0)
(2.27367 -0.00131858 0)
(0.607136 0.130833 0)
(0.361036 0.147266 0)
(0.242507 0.163334 0)
(0.162952 0.169284 0)
(0.097693 0.169806 0)
(0.0262961 0.169352 0)
(-0.00186512 0.165222 0)
(3 4.4159e-06 0)
(2.99966 4.41889e-06 0)
(2.99698 9.38043e-05 0)
(2.99858 -0.000388829 0)
(3.00216 -0.000561241 0)
(3.03231 -0.00140118 0)
(3.01419 -0.00108315 0)
(3.02401 -5.61411e-05 0)
(3.00455 0.00156146 0)
(3.0018 0.00123472 0)
(2.99702 0.000980756 0)
(3.01008 0.00518135 0)
(3.02196 -0.025318 0)
(3.06832 -0.0554298 0)
(3.06822 -0.0569205 0)
(3.03327 -0.0346189 0)
(3.00007 -0.00835466 0)
(2.96438 -0.0413472 0)
(2.97791 -0.0439904 0)
(2.9632 -0.0416526 0)
(2.94662 -0.0371595 0)
(2.9731 -0.0216965 0)
(2.97625 -0.00809081 0)
(3.01614 0.000208685 0)
(3.01426 -0.000345674 0)
(2.98808 0.00171929 0)
(2.98766 0.00548336 0)
(2.99957 0.00885441 0)
(3.01514 0.0234395 0)
(3.00118 0.0315631 0)
(3.01989 0.0247783 0)
(3.01278 0.02488 0)
(3.03831 0.0244355 0)
(3.0481 0.0206668 0)
(3.0639 0.00882106 0)
(3.0475 0.00247672 0)
(3.01546 0.0249545 0)
(2.82844 0.00998163 0)
(2.88063 -0.00764943 0)
(2.95934 -0.0136644 0)
(2.40028 -0.0442111 0)
(0.711332 0.195602 0)
(0.38405 0.288454 0)
(0.249661 0.250292 0)
(0.174754 0.218776 0)
(0.110732 0.213196 0)
(0.0298052 0.215301 0)
(0.00251072 0.206948 0)
(3.00004 -1.1581e-05 0)
(3.00003 1.05705e-05 0)
(3.0019 -1.64782e-05 0)
(3.00528 0.000728883 0)
(3.00182 0.000199244 0)
(2.98316 0.00332857 0)
(2.98935 0.00092125 0)
(2.97937 -0.00345896 0)
(2.99535 -0.00166354 0)
(3.00087 0.00626539 0)
(2.99774 0.0115686 0)
(2.99492 0.00505784 0)
(2.99469 0.0110119 0)
(2.9906 0.00411501 0)
(2.99902 -0.000504239 0)
(3.0074 -0.00210178 0)
(3.02983 -0.000313594 0)
(3.04792 -0.0242648 0)
(3.03768 -0.0554627 0)
(3.07669 -0.0726341 0)
(3.13821 -0.0865927 0)
(3.09288 -0.0725214 0)
(3.09295 -0.054339 0)
(3.01311 -0.0402315 0)
(3.02322 -0.0302183 0)
(2.99966 -0.0120619 0)
(3.00193 -0.00921763 0)
(3.01631 -0.0040575 0)
(3.00503 0.01638 0)
(3.02929 0.0351664 0)
(2.98736 0.0457834 0)
(2.99969 0.0379151 0)
(3.01147 0.0130253 0)
(3.01454 0.000895724 0)
(3.03747 -0.00162493 0)
(2.99853 0.00452603 0)
(3.03632 0.0532358 0)
(2.86563 0.0781304 0)
(2.91332 0.0857871 0)
(2.92898 0.0115004 0)
(2.46662 0.0406485 0)
(0.871684 0.27482 0)
(0.439128 0.405094 0)
(0.268579 0.332257 0)
(0.209166 0.271235 0)
(0.143706 0.262112 0)
(0.0492574 0.263753 0)
(0.00342143 0.248634 0)
(2.99991 1.40394e-05 0)
(2.99984 -4.76973e-05 0)
(2.99822 -0.000226503 0)
(2.99422 -0.000323423 0)
(3.00011 -3.27552e-05 0)
(3.01767 -0.00158771 0)
(3.00937 0.000589686 0)
(3.02294 0.00428443 0)
(3.00963 0.00354652 0)
(3.00508 -0.0215472 0)
(2.93738 -0.033902 0)
(3.00878 -0.028971 0)
(2.95829 -0.00425134 0)
(3.00963 0.0218799 0)
(3.00539 0.0308927 0)
(3.01924 0.0266434 0)
(3.02842 0.0165349 0)
(3.01163 0.0258654 0)
(2.99875 0.0317082 0)
(2.9907 0.0518544 0)
(3.0108 0.0711662 0)
(2.99748 0.0548682 0)
(2.99118 0.0117559 0)
(3.00816 -0.0184334 0)
(3.0118 -0.0357155 0)
(3.02535 -0.0395492 0)
(3.03224 -0.0270809 0)
(3.0305 -0.0179837 0)
(3.02696 -0.00485128 0)
(3.01597 0.018463 0)
(3.00116 0.0279566 0)
(2.99244 0.00361827 0)
(2.99964 -0.032573 0)
(3.0065 -0.0298085 0)
(3.00267 -0.0135761 0)
(3.02284 0.0245141 0)
(3.01937 0.0957187 0)
(2.89748 0.185725 0)
(2.83413 0.172311 0)
(2.72065 0.0732394 0)
(2.54347 0.105989 0)
(1.21993 0.351017 0)
(0.500858 0.519626 0)
(0.272572 0.419853 0)
(0.239852 0.338007 0)
(0.166974 0.325995 0)
(0.0582415 0.316118 0)
(-0.00113011 0.291111 0)
(3.00011 -1.94078e-06 0)
(3.00016 1.95143e-05 0)
(3.00196 0.000340984 0)
(3.00751 0.00041906 0)
(3.00149 -0.000410233 0)
(2.98878 0.00319888 0)
(2.98882 0.00272034 0)
(2.98172 0.00298595 0)
(2.99951 0.00116199 0)
(2.99353 -0.0011062 0)
(3.12908 -0.00161908 0)
(3.0685 -0.0023831 0)
(3.08622 0.00550046 0)
(3.0026 0.0243048 0)
(2.97105 0.0240582 0)
(2.97829 0.027115 0)
(2.97479 0.0309921 0)
(2.97978 0.0409698 0)
(2.97769 0.0627299 0)
(3.00244 0.0801134 0)
(3.02069 0.0824697 0)
(3.02857 0.0659797 0)
(3.00904 0.0355834 0)
(3.00321 0.000870109 0)
(3.00655 -0.0136032 0)
(3.0066 -0.0154029 0)
(3.02981 -0.0149908 0)
(3.05197 0.00148057 0)
(3.04731 0.0134885 0)
(3.02982 0.0260073 0)
(3.02102 0.040917 0)
(3.06234 0.0951053 0)
(3.11818 0.127739 0)
(3.08277 0.113196 0)
(3.04455 0.0824332 0)
(3.00568 0.0871412 0)
(3.03611 0.127449 0)
(2.94984 0.183503 0)
(2.95668 0.222892 0)
(2.82994 0.194343 0)
(2.70838 0.109974 0)
(1.71579 0.278517 0)
(0.551221 0.598323 0)
(0.339325 0.518933 0)
(0.295987 0.419151 0)
(0.195123 0.390087 0)
(0.0630259 0.367358 0)
(-0.0196618 0.328809 0)
(2.9999 1.46826e-05 0)
(2.99971 -0.000196865 0)
(2.9981 -0.00045791 0)
(2.99165 -0.000672506 0)
(2.99617 0.000849561 0)
(3.00484 -0.00337004 0)
(3.01062 -0.000664021 0)
(3.01225 -0.0017149 0)
(3.00542 0.00271336 0)
(2.99248 0.0183954 0)
(2.96064 0.03095 0)
(2.96081 0.0187698 0)
(2.97618 -0.00317416 0)
(2.98926 -0.00766362 0)
(2.99612 -0.0136038 0)
(2.99424 -0.0209076 0)
(2.99367 -0.0178783 0)
(2.96972 0.0111247 0)
(2.96045 0.0450988 0)
(3.00196 0.0640802 0)
(3.00353 0.0611115 0)
(3.03195 0.0533981 0)
(2.96986 0.0312824 0)
(2.96949 0.0171263 0)
(2.98386 0.00949931 0)
(3.00846 0.00748749 0)
(3.01234 -0.00665073 0)
(3.04032 -0.00983357 0)
(3.04349 -0.00749945 0)
(3.0394 0.0119919 0)
(3.01534 0.0227141 0)
(2.95814 0.0424652 0)
(2.83702 0.0331168 0)
(2.8964 0.0298976 0)
(2.91186 0.0280583 0)
(2.93702 0.026771 0)
(2.95995 0.0522628 0)
(2.95731 0.0934655 0)
(2.99433 0.154546 0)
(2.97582 0.19056 0)
(2.85917 0.102538 0)
(2.07791 0.1286 0)
(0.659981 0.625452 0)
(0.430296 0.647081 0)
(0.362537 0.518787 0)
(0.227802 0.4558 0)
(0.0696765 0.421846 0)
(-0.0262928 0.379803 0)
(3.00023 -4.35267e-05 0)
(3.00093 0.000479582 0)
(3.00276 0.000565541 0)
(3.01169 0.000728816 0)
(3.0034 -0.000361372 0)
(3.00034 -0.00337026 0)
(2.98441 -0.0142878 0)
(2.9776 -0.0103962 0)
(2.98899 -0.00283235 0)
(3.00524 0.0137002 0)
(3.00155 0.00354454 0)
(3.00589 -0.00199748 0)
(3.00403 0.00264325 0)
(3.01006 0.00179426 0)
(2.98994 -0.00216435 0)
(2.99756 -0.0141429 0)
(2.97707 -0.0146164 0)
(3.01344 -0.00577689 0)
(2.99927 -0.00985754 0)
(3.00839 -0.0360915 0)
(3.00684 -0.0529304 0)
(3.00706 -0.0427087 0)
(2.96981 -0.0125011 0)
(2.98301 0.0157107 0)
(2.99982 0.0236353 0)
(3.00861 0.0163029 0)
(3.00054 -0.0126356 0)
(3.00704 -0.0394034 0)
(2.99624 -0.0296916 0)
(3.03742 -0.00865898 0)
(3.02549 -0.00890784 0)
(3.02166 -0.0464652 0)
(3.07187 -0.0933438 0)
(3.06129 -0.0834877 0)
(3.01744 -0.0710273 0)
(2.98998 -0.0416549 0)
(2.98922 -0.0195374 0)
(2.98585 -0.000660324 0)
(3.00461 0.0257719 0)
(3.07343 0.0579404 0)
(2.88593 0.077996 0)
(2.25509 0.0254372 0)
(0.945932 0.598825 0)
(0.557944 0.753894 0)
(0.401805 0.619851 0)
(0.226279 0.536946 0)
(0.0712276 0.488749 0)
(-0.0439592 0.457437 0)
(3.00001 1.11469e-05 0)
(2.99792 -0.000307833 0)
(2.9962 -0.000384587 0)
(2.98379 -0.000583199 0)
(3.0039 0.00143777 0)
(2.99383 0.00490192 0)
(3.04395 0.0150099 0)
(3.04742 0.00995203 0)
(3.04621 -0.00785142 0)
(2.98188 -0.0205805 0)
(2.96232 -0.00185138 0)
(2.9503 0.0287187 0)
(2.98296 0.0380162 0)
(2.99847 0.0187233 0)
(2.99399 0.013348 0)
(2.98862 0.0175171 0)
(2.99119 0.0238318 0)
(3.00963 0.00715977 0)
(2.93006 -0.0682716 0)
(2.95442 -0.195311 0)
(2.98275 -0.230869 0)
(3.0056 -0.196268 0)
(3.00863 -0.0954253 0)
(3.0543 -0.00309518 0)
(3.03347 0.0224716 0)
(3.03901 0.028046 0)
(2.99751 0.0426507 0)
(3.03569 0.0688876 0)
(3.02387 0.0681082 0)
(3.0627 0.0462489 0)
(3.04197 0.0074956 0)
(3.01681 -0.0110188 0)
(2.99159 -0.00514345 0)
(2.99511 -0.0119639 0)
(2.99624 -0.0231547 0)
(2.99704 -0.0245514 0)
(2.97866 -0.0160437 0)
(2.98305 -0.0138155 0)
(2.96374 -0.0190508 0)
(2.97 -0.015939 0)
(2.93031 0.0487106 0)
(2.54567 0.0565327 0)
(1.44241 0.469611 0)
(0.64653 0.840888 0)
(0.429808 0.731797 0)
(0.26156 0.627678 0)
(0.120653 0.578183 0)
(0.00163587 0.577994 0)
(2.99998 -6.66973e-06 0)
(3.00283 5.90419e-05 0)
(3.00421 0.000224152 0)
(3.02386 0.000380566 0)
(2.99678 -0.000756922 0)
(3.00819 -0.0012146 0)
(2.94763 -0.00384142 0)
(2.99994 -0.00270672 0)
(2.9272 -0.00798051 0)
(3.01858 -0.022158 0)
(3.01023 -0.0129286 0)
(3.03922 -0.014885 0)
(3.00403 -0.0384583 0)
(2.88805 -0.0795277 0)
(2.88945 -0.0798514 0)
(2.92584 -0.0553119 0)
(2.99099 -0.0217431 0)
(3.01081 -0.0156023 0)
(3.02124 -0.0189213 0)
(2.95648 -0.00590239 0)
(3.02118 -0.000237603 0)
(3.10957 0.00852771 0)
(3.11551 0.0081256 0)
(3.1316 0.0087915 0)
(3.09291 0.0135537 0)
(3.06206 0.0364676 0)
(3.01228 0.0678531 0)
(2.97627 0.0466733 0)
(2.96174 0.00389535 0)
(2.98565 -0.033392 0)
(2.9603 -0.0640871 0)
(2.94679 -0.0675325 0)
(2.96056 -0.056143 0)
(2.98872 -0.0502859 0)
(2.99622 -0.0414551 0)
(3.01468 -0.0383142 0)
(3.0307 -0.0114246 0)
(3.01513 -0.00412378 0)
(2.99977 -0.00543404 0)
(2.98396 -0.00274022 0)
(2.98718 0.0343913 0)
(2.87674 0.138141 0)
(2.05733 0.154536 0)
(0.782967 0.814937 0)
(0.539797 0.868422 0)
(0.362314 0.774116 0)
(0.253261 0.706264 0)
(0.105731 0.734063 0)
(3.00007 2.92862e-06 0)
(2.99704 2.54385e-05 0)
(2.99593 -3.63001e-05 0)
(2.97928 7.659e-05 0)
(3.00719 0.000774688 0)
(2.99197 0.00026928 0)
(3.03891 -0.00281543 0)
(3.05142 -0.00104144 0)
(3.0502 0.00575917 0)
(3.00815 0.0159692 0)
(3.00133 0.00149426 0)
(3.02881 -0.0259546 0)
(2.9938 -0.0412365 0)
(3.06778 -0.0317364 0)
(3.20901 -0.0090317 0)
(3.13344 -0.00394009 0)
(3.14856 -0.0106426 0)
(3.06424 -0.00969878 0)
(2.97288 0.0749418 0)
(2.94117 0.201117 0)
(2.96084 0.249433 0)
(3.00855 0.229275 0)
(3.0328 0.153651 0)
(3.03125 0.0582305 0)
(3.00142 0.0332692 0)
(3.00825 0.0310513 0)
(3.00352 0.0229287 0)
(3.00539 -0.0144208 0)
(3.0266 -0.0492307 0)
(3.05033 -0.0565446 0)
(3.02618 -0.0465836 0)
(3.01464 -0.0406811 0)
(2.99934 -0.0429568 0)
(3.01463 -0.0455981 0)
(3.0157 -0.0351512 0)
(3.02126 -0.0365395 0)
(3.07043 -0.0337856 0)
(3.06846 -0.0293698 0)
(3.06397 -0.016461 0)
(2.99013 0.0106418 0)
(3.07838 0.0252386 0)
(3.07306 0.0114425 0)
(2.45483 -0.0147581 0)
(1.22562 0.725582 0)
(0.709739 1.0707 0)
(0.590723 0.922745 0)
(0.418832 0.922833 0)
(0.172036 1.04235 0)
(2.99998 2.82445e-05 0)
(3.00211 -0.000286943 0)
(3.00484 -0.000130363 0)
(3.02186 -0.000200076 0)
(3.0064 -0.000407382 0)
(2.99572 -0.00216656 0)
(2.9671 0.00847947 0)
(2.98064 0.00219151 0)
(2.96291 0.0108527 0)
(2.98619 0.0129406 0)
(3.00105 0.00654382 0)
(3.00045 0.0114248 0)
(3.00895 0.0410902 0)
(3.00888 0.0820103 0)
(3.01781 0.0825289 0)
(3.00888 0.0552165 0)
(2.98577 0.0184788 0)
(2.99723 -0.00876849 0)
(2.99461 -0.00391211 0)
(3.00567 0.0203543 0)
(3.01931 0.0372431 0)
(3.01727 0.0363077 0)
(3.00663 0.0231391 0)
(2.9659 0.0100049 0)
(2.96725 0.00182313 0)
(2.97874 -0.00181341 0)
(2.98627 -0.00295708 0)
(2.98383 0.0207029 0)
(2.98717 0.0583796 0)
(2.9846 0.0662726 0)
(2.99557 0.0592675 0)
(2.96913 0.0391228 0)
(2.97052 -0.0113299 0)
(2.98989 -0.052351 0)
(3.02768 -0.0563611 0)
(3.02956 -0.0523888 0)
(3.07467 -0.045722 0)
(3.06016 -0.0391815 0)
(3.01695 -0.0120224 0)
(3.02876 0.0209296 0)
(3.06697 0.0173824 0)
(3.04702 -0.0248159 0)
(2.77799 0.023623 0)
(1.76025 0.311995 0)
(0.953251 1.10857 0)
(0.723961 1.14583 0)
(0.688066 1.18876 0)
(0.764216 1.41409 0)
(2.9995 -7.74074e-05 0)
(2.99889 0.000485796 0)
(2.99733 0.000339928 0)
(2.9829 0.000398869 0)
(3.01094 -0.000452495 0)
(3.00097 0.00175404 0)
(3.02067 -0.00754686 0)
(3.02793 -0.001527 0)
(3.03028 -0.00291783 0)
(3.02026 -0.00681054 0)
(2.98879 -0.00364562 0)
(2.9819 0.00664611 0)
(2.98784 0.0123883 0)
(2.99924 0.00721182 0)
(3.00131 0.00257406 0)
(2.99896 0.0017598 0)
(2.99652 -0.00296091 0)
(2.99848 -0.0181468 0)
(2.98381 -0.045709 0)
(2.96423 -0.101657 0)
(3.00037 -0.122248 0)
(2.9947 -0.116413 0)
(2.99605 -0.0860469 0)
(3.00009 -0.0231546 0)
(3.0049 0.0127961 0)
(2.99181 0.0113965 0)
(2.98884 -0.00741663 0)
(2.99096 -0.021615 0)
(3.01012 -0.0239125 0)
(3.00341 -0.0198432 0)
(3.00615 -0.0198386 0)
(2.97085 -0.0208256 0)
(2.97076 -0.0361059 0)
(2.96415 -0.0341958 0)
(3.0296 -0.033904 0)
(3.03918 -0.00709506 0)
(3.11784 -0.00317828 0)
(3.11913 0.00558299 0)
(3.05627 0.0402075 0)
(3.04196 0.0670786 0)
(3.0079 0.0608171 0)
(3.01302 0.0507421 0)
(2.97657 0.0630495 0)
(2.23505 0.0669595 0)
(1.43426 0.902643 0)
(0.985456 1.26692 0)
(0.951759 1.4053 0)
(1.15255 1.41345 0)
(3.00045 -1.15036e-05 0)
(3.00004 -0.000258744 0)
(3.00205 -0.00051697 0)
(3.01337 -0.000643569 0)
(2.99989 0.00191023 0)
(2.9828 0.00170848 0)
(2.98668 0.00450376 0)
(2.98383 0.00754031 0)
(2.97753 -0.00110253 0)
(2.98376 -0.00738306 0)
(3.01336 -0.00578612 0)
(3.00787 -0.00163537 0)
(3.02071 -0.00352883 0)
(2.99619 -0.00525261 0)
(2.97803 -0.0167239 0)
(2.99351 -0.016947 0)
(2.98563 -0.0176785 0)
(2.96385 -0.0115229 0)
(2.97039 -0.00854513 0)
(2.98083 -0.0214681 0)
(2.99251 -0.018362 0)
(3.06781 0.00293498 0)
(3.05794 0.00836091 0)
(3.10087 0.00644226 0)
(3.05875 0.0107667 0)
(3.03656 -0.00256221 0)
(2.97951 -0.0230622 0)
(2.9461 -0.0890281 0)
(2.93806 -0.131267 0)
(2.9281 -0.12903 0)
(3.00654 -0.116654 0)
(3.0058 -0.0891923 0)
(3.01817 -0.0357921 0)
(2.98866 0.0221055 0)
(3.02347 0.0378016 0)
(3.08408 0.0499347 0)
(3.09618 0.0441571 0)
(3.08433 0.0477294 0)
(3.07579 0.0591412 0)
(3.04852 0.0689729 0)
(3.03261 0.0572535 0)
(3.04281 0.0557206 0)
(3.04582 0.037793 0)
(2.82334 0.0960058 0)
(1.90884 0.286675 0)
(1.39156 1.14155 0)
(1.21828 1.54195 0)
(1.4336 1.4823 0)
(2.99996 1.24695e-05 0)
(2.99951 4.99587e-05 0)
(2.99819 0.000323898 0)
(2.99161 0.00129763 0)
(2.99979 -0.00207601 0)
(3.01142 -0.005214 0)
(3.02056 0.00203174 0)
(3.00622 -0.00315684 0)
(3.00898 0.000898482 0)
(2.997 0.00505439 0)
(2.99385 0.013822 0)
(3.00493 0.00907346 0)
(2.99255 0.00407945 0)
(3.00802 -0.00262436 0)
(3.00667 -0.016959 0)
(3.00121 -0.0190067 0)
(3.01482 -0.0166373 0)
(3.01731 -0.00422286 0)
(3.02463 0.0202779 0)
(3.00391 0.0638102 0)
(3.01582 0.077262 0)
(3.03837 0.0621462 0)
(2.96289 0.00642054 0)
(2.98522 -0.0495392 0)
(2.98151 -0.0792643 0)
(2.98661 -0.0739184 0)
(2.98247 -0.0398943 0)
(2.93128 -0.0235681 0)
(2.95642 -0.0187519 0)
(3.05152 -0.0266684 0)
(3.05317 -0.020445 0)
(3.05834 -0.0111247 0)
(3.03202 0.0249119 0)
(3.05369 0.0411461 0)
(3.058 0.0393705 0)
(3.07784 0.0315369 0)
(3.0738 0.0341539 0)
(3.07026 0.0323834 0)
(3.04008 0.0290385 0)
(3.02806 0.0329741 0)
(3.03304 0.0347096 0)
(3.03573 0.0230112 0)
(3.08256 0.0250585 0)
(3.10094 0.0357786 0)
(2.56598 0.00338165 0)
(1.71942 0.630729 0)
(1.49435 1.38784 0)
(1.74776 1.59175 0)
(3.00008 4.70049e-06 0)
(3.00039 -5.85575e-05 0)
(3.00389 -0.000272188 0)
(3.00214 -0.00102106 0)
(3.00387 0.00164877 0)
(2.99424 0.00474521 0)
(2.97421 -0.0121008 0)
(2.98659 -0.011482 0)
(2.978 -0.0039701 0)
(2.98979 0.00244118 0)
(2.99204 -0.00123523 0)
(3.00678 -0.0277286 0)
(2.99876 -0.0336659 0)
(3.01795 -0.0300454 0)
(2.99394 -0.0113705 0)
(2.99527 0.0108617 0)
(2.99929 0.015798 0)
(3.00842 0.0156309 0)
(3.01909 0.00971779 0)
(3.01845 0.00309437 0)
(3.01741 -0.000897827 0)
(3.04579 -0.0136709 0)
(3.01504 -0.0213378 0)
(2.96312 -0.0205589 0)
(2.97511 -0.0235705 0)
(3.02956 -0.0137933 0)
(3.04636 0.020956 0)
(3.05966 0.102543 0)
(3.02116 0.137981 0)
(3.01637 0.129773 0)
(3.00037 0.0801781 0)
(3.01888 0.064527 0)
(3.01379 0.0561757 0)
(3.04094 0.0527528 0)
(3.05001 0.0364996 0)
(3.05504 0.03352 0)
(3.06122 0.0374942 0)
(3.05436 0.0390542 0)
(3.04302 0.0308705 0)
(3.00981 0.0186513 0)
(2.99493 0.00455991 0)
(2.97047 -0.00549764 0)
(3.04787 0.0048518 0)
(3.23557 -0.0151093 0)
(2.97673 0.0342023 0)
(2.40858 0.19367 0)
(1.79762 0.831138 0)
(1.92473 1.37072 0)
(3.00001 -1.79292e-05 0)
(2.99943 6.9543e-05 0)
(2.99587 0.000255033 0)
(2.99801 -0.000798721 0)
(2.99841 -0.00113152 0)
(3.00656 -0.0021186 0)
(3.05428 0.0104499 0)
(3.03529 0.00998686 0)
(3.0368 -0.00033112 0)
(3.01588 -0.00317156 0)
(3.01962 -0.00594357 0)
(3.00969 0.0111555 0)
(3.06099 0.0162292 0)
(3.06323 0.0201882 0)
(3.06189 0.0251099 0)
(3.04035 0.0292875 0)
(3.01469 0.0200889 0)
(2.99547 -0.000770868 0)
(3.0053 -0.0269576 0)
(2.97804 -0.0481771 0)
(2.98891 -0.0628121 0)
(3.0081 -0.0593215 0)
(3.02102 -0.0136884 0)
(3.02215 0.0540465 0)
(3.02538 0.0958902 0)
(3.01219 0.0890207 0)
(3.02203 0.0568143 0)
(3.01622 0.0321469 0)
(3.01379 0.0333689 0)
(2.99412 0.034608 0)
(2.96217 0.0311993 0)
(2.96547 0.0262186 0)
(2.98686 0.0373389 0)
(3.02795 0.0409894 0)
(3.06264 0.0420882 0)
(3.04668 0.0327114 0)
(3.06978 0.0159186 0)
(3.0437 0.00794374 0)
(3.00237 0.00209219 0)
(3.00076 -0.013739 0)
(2.98165 -0.0177664 0)
(2.98586 -0.015588 0)
(3.0026 -0.0343046 0)
(3.06786 -0.0631969 0)
(3.03641 -0.0420935 0)
(2.96077 -0.00533035 0)
(2.51561 0.188008 0)
(2.01839 0.668505 0)
(3 8.04739e-06 0)
(2.99992 -4.20684e-05 0)
(3.00212 -0.000367109 0)
(3.00845 0.00134615 0)
(3.0057 0.00139848 0)
(2.99742 -0.00151646 0)
(2.93659 0.00359135 0)
(2.96591 0.00410516 0)
(2.9491 0.00740025 0)
(2.99331 -0.00031916 0)
(2.99552 0.00130639 0)
(2.99174 0.0307949 0)
(2.9508 0.0432202 0)
(2.91987 0.0323546 0)
(2.94866 0.0234091 0)
(2.96573 0.0120802 0)
(2.97265 0.0116925 0)
(2.97164 0.00362068 0)
(2.98956 -0.00385014 0)
(3.00461 -0.0168362 0)
(3.0057 -0.0334157 0)
(3.02283 -0.0557266 0)
(3.05341 -0.0721077 0)
(3.08872 -0.0748781 0)
(3.09254 -0.0707135 0)
(3.06975 -0.0571529 0)
(3.0424 -0.0403999 0)
(2.99843 -0.0475233 0)
(2.9873 -0.0475774 0)
(2.99237 -0.033174 0)
(2.96978 -0.00757232 0)
(2.96254 -0.00034394 0)
(2.96807 -0.00312862 0)
(3.0249 0.000203794 0)
(3.01779 0.000764857 0)
(3.03689 -0.0051514 0)
(3.00359 -0.0269936 0)
(3.01338 -0.0460445 0)
(3.02288 -0.0620594 0)
(3.0156 -0.0601935 0)
(3.00987 -0.0447986 0)
(3.01461 -0.0331485 0)
(3.00858 -0.0455043 0)
(3.02707 -0.0652576 0)
(3.03663 -0.101499 0)
(3.05225 -0.106223 0)
(3.00577 -0.0821022 0)
(2.64775 0.0891476 0)
(2.99997 -1.44148e-06 0)
(3.00018 3.7834e-06 0)
(2.99786 0.000135962 0)
(2.99113 -0.000570223 0)
(2.99781 -0.00122856 0)
(2.9995 0.00297675 0)
(3.04695 -0.0158968 0)
(3.04349 -0.0116702 0)
(3.03069 0.00206324 0)
(3.00105 0.00435344 0)
(2.98302 -0.0134005 0)
(2.99803 -0.0484669 0)
(2.99833 -0.0500249 0)
(3.00759 -0.0355323 0)
(2.99318 -0.0095725 0)
(2.99991 -0.00290381 0)
(2.99705 0.0037339 0)
(2.98892 0.0113433 0)
(2.9789 0.0109644 0)
(2.97794 0.0118185 0)
(2.98834 0.00857711 0)
(3.00748 -0.016343 0)
(2.97698 -0.103107 0)
(3.00116 -0.235088 0)
(3.04327 -0.26247 0)
(3.05727 -0.224814 0)
(3.09733 -0.13148 0)
(3.06341 -0.0632122 0)
(3.00636 -0.040998 0)
(2.97978 -0.0165291 0)
(2.98727 -0.00881968 0)
(2.98933 -0.00890912 0)
(3.00351 -0.0251575 0)
(3.0131 -0.0360631 0)
(3.03836 -0.0376985 0)
(3.05089 -0.0266105 0)
(3.05034 -0.0255329 0)
(3.02095 -0.0419389 0)
(3.00048 -0.0727223 0)
(2.97778 -0.0789586 0)
(3.00759 -0.0772844 0)
(3.01553 -0.064337 0)
(3.03942 -0.0506714 0)
(3.0275 -0.0409721 0)
(2.97626 -0.031866 0)
(2.9802 -0.0277197 0)
(2.99756 -0.0344072 0)
(3.06668 0.00242442 0)
(3 -8.81193e-08 0)
(2.99997 2.03451e-06 0)
(3.00207 -0.000154714 0)
(3.00974 -3.47885e-05 0)
(3.00186 -0.000585505 0)
(2.99455 0.00426048 0)
(2.9845 0.00986187 0)
(2.97109 0.00135361 0)
(2.99808 -0.00973799 0)
(2.99897 -0.00675924 0)
(3.00923 0.0152716 0)
(3.02102 0.0271155 0)
(3.01766 0.0256057 0)
(3.03801 0.01433 0)
(3.00065 -0.0155812 0)
(3.0013 -0.0428883 0)
(2.98111 -0.0463804 0)
(2.98781 -0.0353609 0)
(2.9631 -0.0170754 0)
(2.98297 0.0099496 0)
(2.99755 0.0306246 0)
(3.0411 0.0391147 0)
(2.97817 0.0361636 0)
(2.973 0.0339303 0)
(3.12583 0.0267924 0)
(3.14399 0.00731743 0)
(3.181 -0.00975509 0)
(3.15085 -0.00949048 0)
(3.07091 -0.00450369 0)
(3.02412 -0.00469915 0)
(3.00027 -0.0173491 0)
(3.00295 -0.0366386 0)
(3.00078 -0.0432167 0)
(3.0119 -0.039507 0)
(3.04468 -0.0118151 0)
(3.06735 -0.00842038 0)
(3.04585 -0.0115402 0)
(3.04953 -0.0298852 0)
(2.98532 -0.0514958 0)
(2.98702 -0.0614082 0)
(2.97238 -0.0702529 0)
(3.03749 -0.067732 0)
(3.047 -0.0478136 0)
(3.07456 -0.0118297 0)
(3.04448 0.0246881 0)
(3.05279 0.0481651 0)
(3.02566 0.0475396 0)
(3.02639 0.0310365 0)
(2.99996 3.82459e-07 0)
(3.00021 -1.64565e-05 0)
(2.99829 0.000475698 0)
(2.99157 0.000636419 0)
(2.99406 -0.000820673 0)
(3.00469 -0.00792571 0)
(3.01279 0.00425961 0)
(3.02804 0.0104025 0)
(3.00416 0.00980063 0)
(3.01445 0.00175359 0)
(2.98859 0.00767196 0)
(2.98223 0.0148556 0)
(2.97064 0.0135385 0)
(2.96782 0.00902232 0)
(2.97346 -0.0193386 0)
(2.98383 -0.0250012 0)
(3.03178 -0.0268787 0)
(3.03777 -0.0149859 0)
(3.03613 -0.0228183 0)
(3.01834 -0.0336349 0)
(3.01314 -0.0296206 0)
(3.01677 -0.00735478 0)
(3.00678 0.0879668 0)
(2.98926 0.19836 0)
(2.97267 0.186095 0)
(3.00566 0.148091 0)
(3.0447 0.0592949 0)
(3.04915 0.0129454 0)
(3.04098 0.0148692 0)
(3.0114 0.00574146 0)
(3.01714 -0.0170737 0)
(2.9674 -0.0366579 0)
(2.96891 -0.0405833 0)
(2.97946 -0.0324656 0)
(3.06646 -0.0259048 0)
(3.08203 -0.0215522 0)
(3.06222 -0.0298704 0)
(3.06478 -0.0420131 0)
(3.0147 -0.0511241 0)
(2.97483 -0.0562029 0)
(2.97486 -0.063104 0)
(3.01014 -0.078463 0)
(3.08134 -0.0666118 0)
(3.07232 -0.054959 0)
(3.09439 -0.0392028 0)
(3.09297 -0.0094163 0)
(3.05352 -0.000643343 0)
(3.02935 0.000319105 0)
(3.00006 5.86679e-06 0)
(2.99997 2.34404e-05 0)
(3.00086 -0.000594486 0)
(3.00375 -0.0012218 0)
(3.01324 0.00110722 0)
(3.00243 0.00287731 0)
(2.98265 -0.0011069 0)
(2.9567 -0.0035724 0)
(2.98061 0.000485967 0)
(2.96662 0.00484597 0)
(2.98917 -0.00690651 0)
(3.00117 -0.0199319 0)
(3.01515 -0.0299225 0)
(3.01074 -0.0233329 0)
(2.99747 0.0211073 0)
(2.98786 0.0710908 0)
(3.00633 0.0834333 0)
(2.99273 0.0697142 0)
(2.9957 0.0373852 0)
(3.00028 -0.00799241 0)
(3.02506 -0.0242074 0)
(3.0552 -0.0490525 0)
(3.10581 -0.0329856 0)
(3.1059 -0.0189842 0)
(3.06044 -0.00951151 0)
(3.03792 -0.000717537 0)
(3.00227 0.00117798 0)
(3.00595 0.00414124 0)
(3.01608 0.00568877 0)
(3.01792 0.00195259 0)
(3.01563 -0.00650254 0)
(2.96556 -0.0104327 0)
(2.9677 -0.0224868 0)
(2.97345 -0.0262808 0)
(3.06411 -0.0305058 0)