/*--------------------------------*- C++ -*----------------------------------*\
| =========                 |                                                 |
| \\      /  F ield         | OpenFOAM: The Open Source CFD Toolbox           |
|  \\    /   O peration     | Version:  v1912                                 |
|   \\  /    A nd           | Website:  www.openfoam.com                      |
|    \\/     M anipulation  |                                                 |
\*---------------------------------------------------------------------------*/
FoamFile
{
    version     2.0;
    format      ascii;
    class       volScalarField;
    location    "5000";
    object      alphat;
}
// * * * * * * * * * * * * * * * * * * * * * * * * * * * * * * * * * * * * * //

dimensions      [1 -1 -1 0 0 0 0];


internalField   nonuniform List<scalar> 
18230
(
9.985610279265369e-09
4.203904950225782e-10
5.691749949936607e-08
7.89130989494347e-07
4.239317631432967e-11
2.75606422618316e-08
2.512219305211698e-09
1.234449419140445e-06
1.725186099922977e-06
3.076947156644068e-10
2.102383655877898e-08
8.494603605420345e-08
1.205021285959876e-10
6.961976445444324e-08
1.908989661335749e-06
2.06677237502751e-06
5.364930768709992e-10
2.785788334440282e-07
3.198000510978528e-08
1.263431540885505e-07
4.272416687670008e-10
4.174766482821828e-08
1.571612836780595e-07
2.986267475593349e-06
2.841263070000973e-06
5.026340990054065e-10
2.572035220738374e-07
3.16556459613445e-07
4.043918805298093e-08
1.737726881278011e-07
1.586815980559986e-09
3.839636595746618e-07
5.981377207854167e-08
2.655721057344154e-07
3.602804610325087e-06
3.134310404192473e-06
6.68866974725397e-10
3.249803458759674e-07
6.262760889928411e-07
4.758695256302448e-07
4.35275923663583e-08
2.148951089221272e-07
3.500042864843239e-09
8.137428126437055e-07
5.819259889032346e-07
8.265679926679425e-08
3.541627838792867e-07
2.956357226784153e-06
3.66561391188469e-06
6.794708990026358e-10
3.759626596431085e-07
6.262070069800117e-07
7.684508747232202e-07
3.757888759313463e-07
5.227007053172369e-08
2.597645909345663e-07
4.087756567491704e-09
1.065302809301428e-06
2.47955296887055e-06
8.349202666115499e-07
1.067089158879367e-07
4.673279998784005e-07
3.375620605670852e-06
3.712993129137614e-06
5.696250388642358e-10
3.87444713312308e-07
6.600672605627802e-07
6.127149522146149e-07
1.459858991112608e-06
4.42414076146704e-07
6.096849435285591e-08
3.158809796091362e-07
4.910365638475007e-09
1.690964652192074e-06
3.676125982942023e-06
3.281935200400239e-06
8.374613077166795e-07
1.374945406122942e-07
5.848827169716671e-07
4.120882409629077e-06
3.792121262790838e-06
5.808432656127664e-10
3.730655451996477e-07
6.677160664320944e-07
6.744220002535278e-07
1.52007603362765e-06
2.245213256659081e-06
4.310745152223817e-07
7.507262034931058e-08
3.820252310221877e-07
4.296664344004774e-09
1.925989495668848e-06
3.778272115938051e-06
5.882135023641357e-06
3.883602015187535e-06
1.022618765302866e-06
1.720373516671667e-07
7.298563890188583e-07
4.580525801917335e-06
3.056610566248042e-06
5.659842229434062e-10
3.59721917039675e-07
6.908764154898526e-07
6.671567083205017e-07
1.656375812375022e-06
1.56604191330622e-06
3.305271805838214e-06
5.174904141973373e-07
9.371035784281493e-08
4.569457075805541e-07
4.094459681761871e-09
1.87026107008282e-06
3.916613719691333e-06
6.174478978199262e-06
8.46391431287775e-06
4.480619856147161e-06
1.16136367574729e-06
2.161438268656183e-07
8.823006346884347e-07
3.878534148769274e-06
3.111990233186226e-06
5.191783023528387e-10
3.546158640377301e-07
7.166142959859738e-07
6.532939010861763e-07
1.745812351360154e-06
1.583385721821707e-06
3.387060971185659e-06
4.488084376440807e-06
5.761783295844877e-07
1.182367612356202e-07
5.469879672361026e-07
4.501363124554852e-09
1.786528345148743e-06
3.872965127665118e-06
6.301489609343753e-06
8.907909658437698e-06
1.146774214026613e-05
5.180360116398528e-06
1.567030774879557e-06
2.816342665157138e-07
1.058507786868534e-06
3.794233617702842e-06
4.184758687423546e-06
4.742276060645571e-10
3.345804919408168e-07
7.671783739149486e-07
7.732702884659562e-07
1.843913734220947e-06
1.693318458037026e-06
3.580897383528258e-06
3.997760991428521e-06
5.79077956759236e-06
6.928349195576366e-07
1.532333498750424e-07
6.557468259121893e-07
4.37803112942905e-09
1.840869267847409e-06
3.798974822212801e-06
6.273255909558269e-06
9.044187485923618e-06
1.199728637659825e-05
1.480892267883951e-05
6.079882156898699e-06
1.889107535413925e-06
3.718331924793013e-07
1.263032064596976e-06
4.502160829167707e-06
4.387535889203654e-06
5.49088124719893e-10
3.237227145567995e-07
8.36049775621311e-07
8.30779041656357e-07
1.997238048876648e-06
1.823517819909004e-06
3.732285951569172e-06
4.018875340770407e-06
5.710959796816038e-06
7.174256463101311e-06
7.749044684786564e-07
2.000482273391597e-07
7.951435103689329e-07
3.975110791542669e-09
1.849310827706839e-06
3.877516292413422e-06
6.187479483318875e-06
9.052278868746762e-06
1.221221620128248e-05
1.545286345917215e-05
1.84433121466952e-05
6.782389967697441e-06
2.241095424438623e-06
4.915229971767344e-07
1.519210868435909e-06
5.705807028195637e-06
3.944122617005575e-06
6.746929592276014e-10
5.173443438815635e-07
1.048800864068902e-06
9.32311148118902e-07
2.171414334337661e-06
2.021834955933153e-06
3.9086539349985e-06
4.145772016487272e-06
5.987255440442775e-06
7.07853694110844e-06
8.349078955656665e-06
9.390997885369752e-07
2.63805796411004e-07
9.7096027355841e-07
4.481736386722594e-09
1.762215016150042e-06
3.819203049178685e-06
6.246414224338964e-06
8.965899665840346e-06
1.223055042523429e-05
1.570817096325158e-05
1.926003328383514e-05
2.230197084113943e-05
7.804895652637414e-06
2.790213704865351e-06
6.436163771923993e-07
1.856446195982313e-06
5.625582894884227e-06
3.562837912410057e-06
1.103150055505815e-09
6.61229284601234e-07
1.481561184386212e-06
1.041727243679464e-06
2.390069691548868e-06
2.073914811583176e-06
4.132174385473761e-06
4.433138590865042e-06
6.188140823466341e-06
7.392963866988026e-06
8.633644919893637e-06
9.867376105689955e-06
1.122519556824337e-06
3.525194814795077e-07
1.195536678788721e-06
4.312741250695482e-09
1.897384290414442e-06
3.73311032286891e-06
6.142863910595647e-06
8.991674291454176e-06
1.213500188889484e-05
1.573550834281739e-05
1.949388051824915e-05
2.325811518444558e-05
2.643444657391249e-05
8.645326259182395e-06
3.405331975017904e-06
8.617581394040089e-07
2.334897348052812e-06
5.718325100764297e-06
3.40725357792805e-06
1.796088515107849e-09
1.038274110574997e-06
1.805401809655552e-06
2.395228890595049e-06
2.726183928141668e-06
2.243043542286477e-06
4.378830166010444e-06
4.37700773006342e-06
6.465124822615888e-06
7.633197272940528e-06
9.021349378792241e-06
1.057541910729987e-05
1.07909509315124e-05
1.371266994903821e-06
4.768102772652202e-07
1.488969672950902e-06
4.26209540205693e-09
1.887412045814086e-06
3.798692029600893e-06
6.016641375460165e-06
8.868801454354036e-06
1.208132801792466e-05
1.560158514452111e-05
1.949438622460533e-05
2.230624096713129e-05
2.748566689940072e-05
3.063143969554785e-05
1.000546616616946e-05
4.135709580790785e-06
1.206138136517178e-06
3.017551545187518e-06
5.862485400568645e-06
3.626620866155458e-06
1.816141054817705e-09
1.324662818525136e-06
2.294263136358182e-06
2.92753853673699e-06
3.392413733206899e-06
2.801103333797152e-06
4.648486700004065e-06
4.729429374865255e-06
6.748242542599508e-06
7.967832069295314e-06
9.312511691904897e-06
1.10571047723609e-05
1.297985435831774e-05
1.306344476236279e-05
1.672777479906905e-06
6.425596870981161e-07
1.87406140794324e-06
4.215951520054512e-09
1.822751240691971e-06
3.787961512817396e-06
6.066008374498174e-06
8.678708046602752e-06
1.194724824564577e-05
1.548867489617544e-05
1.933819346996891e-05
2.277999167338586e-05
2.642108772315034e-05
3.180748157920954e-05
3.498946941157288e-05
1.048641001510372e-05
4.952062123951315e-06
1.680062250759943e-06
3.912602682517986e-06
6.392786323604741e-06
4.039614640286355e-06
1.972313551618264e-09
1.264710918337208e-06
2.52636295470487e-06
3.653522848364807e-06
4.220117331514883e-06
3.4349260844945e-06
5.11275605231132e-06
5.086931010337831e-06
7.093823581769583e-06
8.316970294789424e-06
9.720593706110282e-06
1.143411248144715e-05
1.357816463454068e-05
1.609529184552404e-05
1.423034131114455e-05
2.052463789170147e-06
8.788038898628777e-07
2.370675247342533e-06
3.858572863108901e-09
1.882496964361189e-06
3.620160823768363e-06
5.971748701259009e-06
8.680565331287082e-06
1.16928701700336e-05
1.531493402928869e-05
1.845278796626599e-05
2.287254223086642e-05
2.508575570328923e-05
3.150849096312183e-05
3.158658620214462e-05
3.957075520551126e-05
1.215671297324749e-05
5.520453981341292e-06
2.229302549782568e-06
5.077425571866511e-06
7.257234440274256e-06
4.635782183358308e-06
2.184653692664364e-09
1.263612443575849e-06
2.470269458137168e-06
3.78586552958239e-06
5.17537131204386e-06
5.685260505763719e-06
6.119421901125804e-06
5.569462064251291e-06
7.458590771160357e-06
8.733535968433744e-06
1.016304694044817e-05
1.194234689108104e-05
1.405757712486753e-05
1.682751030851364e-05
2.008960144671017e-05
1.699554231740953e-05
2.536230469977715e-06
1.189170794010502e-06
3.109748169235084e-06
4.079611148519555e-09
1.781929155909581e-06
3.629491184567396e-06
5.724682019933732e-06
8.563592333980651e-06
1.122862029678743e-05
1.503256318236315e-05
1.865064719971684e-05
2.313385475019792e-05
2.386330124088264e-05
3.078489246551486e-05
3.062517094881649e-05
4.088670822363911e-05
3.994447862547108e-05
1.229786462784619e-05
5.952957135852362e-06
2.80616523867339e-06
6.719549260231061e-06
8.65042049668596e-06
5.465529475641603e-06
2.610478240781232e-09
1.352473215395933e-06
2.632024757816697e-06
3.306644834190327e-06
5.450858401910668e-06
6.863678925376626e-06
7.331223707654988e-06
7.432723095715484e-06
8.099446375910052e-06
9.194058160872354e-06
1.067468548593887e-05
1.249148595969527e-05
1.468232190074843e-05
1.744366051310164e-05
2.098679453509932e-05
2.530882390544513e-05
1.914403095371365e-05
3.132119689317176e-06
1.606630949230117e-06
4.23114087539071e-06
4.668842796203049e-09
1.856383607209372e-06
3.570223182207438e-06
5.740250371643865e-06
8.213291372691334e-06
1.130045685283127e-05
1.496398968182912e-05
1.722979204996009e-05
2.283582966397197e-05
2.24251834076116e-05
3.14904585836951e-05
2.957402452308199e-05
4.168058337702877e-05
3.626709457174477e-05
4.987173722873788e-05
1.324937881540264e-05
6.08814625996625e-06
3.519742651738431e-06
9.067080596158238e-06
1.022030910418941e-05
6.611417073591781e-06
3.242402060447921e-09
1.52119801838938e-06
2.819609381281908e-06
3.467242776650834e-06
5.655521988456624e-06
5.175753990752801e-06
8.833995753721172e-06
8.520242904889311e-06
9.558769385609702e-06
1.000789513855518e-05
1.126559626286428e-05
1.313443565481929e-05
1.53813020189955e-05
1.82288345790626e-05
2.179034232141995e-05
2.641348374761312e-05
3.191559086747015e-05
2.196410479655498e-05
3.928691431927256e-06
2.222566115158469e-06
5.876697314082829e-06
4.574146711570739e-09
2.008283123934818e-06
3.757817561274318e-06
5.703905596068563e-06
8.102727433335144e-06
1.046549781163895e-05
1.466680024902153e-05
1.701293067857339e-05
2.257041587374052e-05
2.234444396138077e-05
3.19165443103807e-05
2.850591933185103e-05
4.169424126112438e-05
3.63846368611662e-05
5.1471825767264e-05
5.163849055524739e-05
1.330680892103114e-05
6.040962614871541e-06
4.364944216169629e-06
1.204028282796204e-05
1.204470055525997e-05
8.161732573118561e-06
2.723138519511374e-09
2.084714128330947e-06
3.091681538153708e-06
4.226731016530179e-06
6.176199508747962e-06
4.918253189668478e-06
9.776435905159542e-06
8.504269295655515e-06
1.164937725160101e-05
1.08365524367557e-05
1.231881133632202e-05
1.390586918278034e-05
1.61831780121062e-05
1.912085211803287e-05
2.277711184410136e-05
2.746302109055876e-05
3.09413836268893e-05
3.547219193680401e-05
2.518104302783064e-05
4.989883980087139e-06
3.1241589372431e-06
8.407698162485839e-06
3.802767930539389e-09
1.836411005404289e-06
3.803541042340507e-06
5.914483122046527e-06
8.092677745357393e-06
1.014743810583473e-05
1.41257626366487e-05
1.588151644649206e-05
2.239621836231652e-05
2.134462151019507e-05
3.153445024721976e-05
2.779941681487671e-05
4.14811626654063e-05
3.382836030899704e-05
5.226480296976442e-05
4.835890362233101e-05
5.715996530004118e-05
1.30413405227413e-05
5.855446466519763e-06
5.178723627045303e-06
1.613142553217989e-05
1.423613815534043e-05
1.011829045612213e-05
3.308427475598348e-09
1.645412927734406e-06
3.483761797822623e-06
4.902971020579491e-06
6.557894720717195e-06
6.132592879329082e-06
1.030745925991161e-05
8.750962157833742e-06
1.435386451155723e-05
1.243557578237869e-05
1.476310305820937e-05
1.525217692996749e-05
1.715071081288677e-05
2.014944802225e-05
2.389386638319777e-05
2.872481880314644e-05
3.273394668047791e-05
3.085170421773863e-05
3.665693436108929e-05
3.02668316406107e-05
6.431368449948087e-06
4.461061629273663e-06
8.102752108790437e-06
3.485161818501095e-09
1.406677467878332e-06
3.493195915778388e-06
5.797530316645693e-06
8.283717667984085e-06
1.044597783789811e-05
1.3731740205519e-05
1.485868332797235e-05
2.197965159654367e-05
2.138120833760909e-05
3.119705302645879e-05
2.789705461069097e-05
4.123178365879758e-05
3.297656149881238e-05
5.22953496134556e-05
4.616112445763232e-05
5.811923192616088e-05
5.708777511891545e-05
1.227160616399505e-05
5.664323378187415e-06
5.916416533801234e-06
2.107393533075139e-05
1.689136349237446e-05
1.259403201290604e-05
2.773711199743358e-09
2.060238589113129e-06
3.178587769185638e-06
5.148800021918557e-06
6.869096714951147e-06
6.880468172272855e-06
1.105066676001677e-05
8.895182171479674e-06
1.599425820668391e-05
1.327039354089944e-05
1.821481554308899e-05
1.833828280773447e-05
1.882613213473427e-05
2.137290741715576e-05
2.522000350079983e-05
3.014628062706113e-05
3.585911381086171e-05
3.294168567737933e-05
3.116159890386521e-05
3.573272014929163e-05
3.437312481097917e-05
8.313171206263295e-06
6.516994341794313e-06
6.766471440938625e-06
3.438175394487804e-09
1.365319732213175e-06
2.925473841199125e-06
4.699764531934253e-06
7.963944455658903e-06
1.079234768957041e-05
1.361487794139478e-05
1.477517129648842e-05
2.1211022193408e-05
2.103862217178794e-05
3.079120239705833e-05
2.687895433688289e-05
4.068487326320169e-05
3.19261508603961e-05
5.104848328362572e-05
4.434900660968251e-05
5.36794374374822e-05
6.310516687884714e-05
5.416000343487762e-05
1.162295554883136e-05
5.384381222293246e-06
6.478069832840809e-06
2.717723923328843e-05
1.966236326455509e-05
1.566782387473503e-05
2.829747382807291e-09
1.468515485572982e-06
3.51451650451149e-06
4.80173636121021e-06
7.004915286036464e-06
7.411984315411912e-06
1.166537138124244e-05
9.189944054776816e-06
1.693726941022993e-05
1.32726867140624e-05
2.263825846825559e-05
2.136774527482297e-05
2.279003196172709e-05
2.352803054767823e-05
2.67503232403821e-05
3.184557413954583e-05
3.811970808700705e-05
3.61412197120938e-05
3.416371212676561e-05
3.171370176881384e-05
3.474744810915831e-05
3.72981120168906e-05
1.076776023750605e-05
9.759036814665248e-06
6.1755602495482e-06
3.440559366924308e-09
1.398244019205632e-06
2.842183494239643e-06
3.72196839036047e-06
7.037610684535396e-06
9.955370797548269e-06
1.357937020234708e-05
1.461671506813053e-05
2.025598409483482e-05
1.984418527197238e-05
3.014949499881662e-05
2.706807814321058e-05
4.024002102841082e-05
3.207532399499731e-05
4.894472443612985e-05
4.395615855116217e-05
5.115498309542074e-05
5.834034689618432e-05
7.504825351688093e-05
5.075739992943365e-05
1.098185675353722e-05
5.222208889960187e-06
6.996399181974467e-06
3.428322310885086e-05
2.285785826426949e-05
1.935707030655956e-05
3.013026780181259e-09
1.427996168281509e-06
2.850964062797967e-06
4.20313984042548e-06
6.834929817482329e-06
7.131228853842022e-06
1.195558631858093e-05
1.029645196985347e-05
1.791584742668993e-05
1.377663431833794e-05
2.536164889579498e-05
2.071507225842993e-05
2.854275618804934e-05
2.85494788736752e-05
2.94882311663005e-05
3.383835760657126e-05
4.023463096889951e-05
4.172284095222982e-05
3.768517725975069e-05
3.50014090135644e-05
3.243936879143931e-05
3.417405194910748e-05
3.921378316779393e-05
1.379117094191318e-05
1.455269066033437e-05
6.410383572589764e-06
3.202520777206508e-09
1.509840180494585e-06
2.872668589123596e-06
3.655635378541584e-06
6.14773773570483e-06
7.507003107132434e-06
1.278188646109505e-05
1.487229357903823e-05
1.982657789835473e-05
1.942524634313892e-05
2.898649842585207e-05
2.587586121453783e-05
3.974732325427754e-05
3.148439912648596e-05
4.902863933266841e-05
4.319841947281915e-05
4.975016015004316e-05
5.507981270846537e-05
6.853842971771592e-05
8.381611967080419e-05
4.507024548588315e-05
1.126334673425497e-05
5.324764439271802e-06
7.692557407854686e-06
4.390451167092878e-05
2.663356933174633e-05
2.375421308019791e-05
3.289080761217677e-09
1.460885014705959e-06
2.928329071300522e-06
3.99625222471292e-06
6.951060950496915e-06
6.885753486831136e-06
1.196282357485624e-05
1.109712846711342e-05
1.861427244193975e-05
1.504156180452243e-05
2.668816068674938e-05
2.165964039632461e-05
3.573711149401855e-05
3.584786518752337e-05
3.592904111780702e-05
3.734419574408597e-05
4.279689222709632e-05
5.089180572118771e-05
4.417702127025176e-05
3.878344858399564e-05
3.616668542130667e-05
3.368511674159254e-05
3.469713904482337e-05
4.135429368770685e-05
1.732375544734057e-05
2.0238860873235e-05
7.278753812260773e-06
2.649965934513948e-09
1.373690414018329e-06
2.787502164865928e-06
3.670669873262234e-06
5.861713583756984e-06
6.178945479526365e-06
1.133514042937027e-05
1.350392239352807e-05
1.853210993407749e-05
1.914484889718997e-05
2.738347330384656e-05
2.520514269549888e-05
3.89551847280281e-05
3.130988807530858e-05
4.805147389438936e-05
4.350424318979765e-05
4.890355096501866e-05
5.362658047255428e-05
6.360340999774552e-05
7.608685323341581e-05
0.0001221457363678206
4.478634532425527e-05
1.240476080169281e-05
5.723661055438459e-06
9.142310446072651e-06
5.685196956122609e-05
3.114774341041992e-05
2.853023080776599e-05
3.393905609271057e-09
1.549431741875309e-06
2.985624730335818e-06
3.971321899267057e-06
6.530423203964502e-06
6.68946181379348e-06
1.186329858411097e-05
1.068128513502393e-05
1.883950473319555e-05
1.638686476976668e-05
2.783763289016092e-05
2.22596059877771e-05
3.989925641225383e-05
3.460250456715124e-05
4.53483921622124e-05
4.555093927140192e-05
4.71921645284924e-05
5.4161035007778e-05
5.433727915760313e-05
4.561361038939078e-05
4.030206410621536e-05
3.778640093268432e-05
3.597869884382451e-05
3.608247914537651e-05
4.269535826822251e-05
2.12974483386426e-05
2.49092484564066e-05
8.845187014901718e-06
2.037870057713878e-09
1.047091276036767e-06
2.312781586398881e-06
3.156858977211242e-06
5.775502411409341e-06
5.849665299613621e-06
1.007129212891865e-05
1.026301188242875e-05
1.71074247696514e-05
1.946233393030123e-05
2.624526909022429e-05
2.502501540364583e-05
3.738138813360953e-05
3.096847310941285e-05
4.631054557623593e-05
4.323038966244903e-05
4.882111815279819e-05
5.253133965089704e-05
6.20760707361498e-05
6.883725344516015e-05
0.000124523207191467
0.0001464242352940259
4.758617600094738e-05
1.456097828925093e-05
6.62793214545485e-06
1.142883420724219e-05
7.505970980642868e-05
3.565990448589125e-05
3.383931546239051e-05
3.504117155334653e-09
1.59518890685909e-06
3.061006288349331e-06
4.022153246740455e-06
6.727787019728039e-06
6.310240759255892e-06
1.181058524473636e-05
1.050523822352113e-05
1.89763133722722e-05
1.643056779723124e-05
2.856698669470449e-05
2.429636275102431e-05
4.169634635921778e-05
3.575307468392233e-05
5.719377321179541e-05
5.761900010152532e-05
5.777009633041907e-05
5.126959652916171e-05
5.815690385858563e-05
5.490950204403272e-05
4.732964708825171e-05
4.229789248002731e-05
4.056923103701867e-05
3.94651186580371e-05
3.856827051623409e-05
4.451651806698281e-05
2.547263048194909e-05
2.665265999621282e-05
1.131976768475297e-05
7.517877604864993e-10
7.179066511146677e-07
1.723529217994308e-06
2.282868940959809e-06
5.379804008364642e-06
5.954303691825572e-06
9.530040354427909e-06
8.604033329408858e-06
1.621663177555029e-05
1.756749435313963e-05
2.31304305981576e-05
2.50659371647812e-05
3.502956373248922e-05
3.097149152447975e-05
4.438993545157073e-05
4.302642040613055e-05
4.815048975676506e-05
5.284159303590646e-05
6.05471421064058e-05
6.79167333252867e-05
0.0001118577461975514
0.0001637601002737986
0.0001721255159412461
5.44901504787474e-05
1.783132755309626e-05
7.999612261904866e-06
1.461014931584355e-05
9.879399311673749e-05
4.234127544896361e-05
3.593759524991103e-05
3.591017625513918e-09
1.615791481549456e-06
3.051481686336558e-06
4.1958279939108e-06
6.924885385739391e-06
6.487665049390095e-06
1.178143116381494e-05
1.03277004005267e-05
1.905142652657355e-05
1.687821473031869e-05
2.911237047456247e-05
2.49124856029805e-05
4.312675759115677e-05
3.744114294475127e-05
6.335826261822823e-05
6.169694257029605e-05
7.337090300677378e-05
6.569270388686684e-05
4.954719779309956e-05
5.82168454757998e-05
5.526167461816738e-05
4.92448448898254e-05
4.557273075674073e-05
4.446838552830439e-05
4.375031242852443e-05
4.291341087724639e-05
4.780574903377037e-05
3.068622659447487e-05
2.743707413317914e-05
1.179199877043993e-05
7.09059276052897e-10
4.162141745824492e-07
1.389077961722345e-06
1.258090510560744e-06
4.237062422332891e-06
5.366181113823674e-06
9.400835751896086e-06
8.391690051481826e-06
1.493274887374279e-05
1.350410859691836e-05
2.258970766939614e-05
2.373541297582988e-05
3.256492327495376e-05
3.101080297907582e-05
4.07097803165459e-05
4.280475064380141e-05
4.724074814665729e-05
5.237278158510997e-05
6.169324334207279e-05
6.564874921870282e-05
0.0001088169848528158
0.0001442605752523282
0.0002125002558201552
0.0002102757233770329
6.547436844011383e-05
2.244814138137189e-05
1.00493520086959e-05
1.823498810005591e-05
0.0001215750856191462
3.778317793411627e-05
3.642303128373685e-05
7.452501776059101e-05
3.683730866252856e-09
1.613374595183362e-06
3.107584561969284e-06
4.127372505281963e-06
7.03643723837129e-06
6.948999821460982e-06
1.211669814898242e-05
1.024786540444743e-05
1.908973544649343e-05
1.698841377456222e-05
2.943204225313411e-05
2.593043504719651e-05
4.421735372539873e-05
3.911004294895723e-05
6.599162557431426e-05
6.213615561018388e-05
9.304465373405942e-05
8.108174897331587e-05
6.801252213975683e-05
5.469462326782874e-05
5.659126770676962e-05
5.576855652361318e-05
5.230636895575481e-05
4.998553255263834e-05
4.893253728706298e-05
4.919207243021616e-05
4.850746316322917e-05
5.418278621626041e-05
3.498795687447502e-05
3.107697848909652e-05
1.237318300986658e-05
8.109139643071477e-10
5.095806099491026e-07
1.044039121779338e-06
1.017374287343227e-06
2.929437084214084e-06
4.033934523885278e-06
8.955508257939691e-06
1.043110212114136e-05
1.404951987093002e-05
1.293809971488819e-05
2.28718436590546e-05
2.120634669551956e-05
3.127368802312066e-05
3.135245300733169e-05
3.770270725069923e-05
4.261434277020969e-05
4.637851852486096e-05
5.130819213422067e-05
6.146167982656294e-05
6.760723717418243e-05
0.0001028446408991101
0.0001347881025872104
0.0002129362931788143
0.000268899578569608
0.0002765076789571443
8.223158873177716e-05
2.891480216752611e-05
1.308309218948573e-05
2.783193594899173e-05
0.0001322921861727547
7.890717024155452e-05
3.512275501915599e-05
0.0001112861081004086
3.670448307969012e-09
1.653849239472063e-06
3.196229362579484e-06
4.090745197741593e-06
7.083869226101705e-06
7.180225764066804e-06
1.235473296890611e-05
1.051022943667984e-05
1.940733672756881e-05
1.675072344843075e-05
2.983274698208016e-05
2.606762554340711e-05
4.514229372851876e-05
4.080477588635095e-05
6.808383858075958e-05
6.321284951480954e-05
0.0001031304299486841
0.0001067383610245183
8.131961813373014e-05
6.840266234458913e-05
5.258385024299986e-05
5.670994846198772e-05
5.754156063255847e-05
5.611319105654281e-05
5.458250479759287e-05
5.463949949629036e-05
5.610564787620161e-05
5.650425346923271e-05
5.655295260272458e-05
3.601690685797867e-05
2.243045851449306e-05
1.259894234911325e-05
9.657337813258514e-10
6.900968383754083e-07
1.281639664237967e-06
1.064853946711567e-06
2.60008994704952e-06
2.352404836822903e-06
7.743434184293592e-06
1.065344099650819e-05
1.165792933254164e-05
1.383026195123036e-05
1.937343606729722e-05
1.957438880211462e-05
2.833921796787318e-05
3.256058391848224e-05
3.567653128858979e-05
4.400430799456184e-05
4.473110923785664e-05
5.042498249166043e-05
6.061453545336722e-05
6.719132984354966e-05
0.0001093851899790738
0.0001280279296192257
0.0001741503321462928
0.0002690601714540916
0.0003321233395540726
0.0003952931302591977
0.0001069481365853518
3.742223481795026e-05
1.799762302274872e-05
1.213971619288294e-05
0.0001313720182533682
2.317961405568476e-05
7.499184539716806e-05
4.784655876178194e-05
5.452194695892407e-05
1.360389031864199e-05
0.0001156608790262123
3.708713751741429e-09
1.666640804348181e-06
3.223282736572678e-06
4.497737315400987e-06
7.290289302492528e-06
6.98495686122209e-06
1.259321466026746e-05
1.07913815347905e-05
1.990420213491435e-05
1.683249186281935e-05
3.016543570620551e-05
2.646217706821194e-05
4.587955049863142e-05
4.151375942993876e-05
6.988662439569872e-05
6.594765008373952e-05
0.0001073931478242684
0.0001147191459554857
0.0001392699886881934
8.486643663549538e-05
6.658701107784855e-05
5.469488857447505e-05
5.713246080803983e-05
6.00185112873405e-05
5.970442892456585e-05
5.976865319465133e-05
6.155435794846788e-05
6.518272832266215e-05
6.091449745325594e-05
6.4820529358667e-05
8.379299894496788e-05
3.825874170960515e-05
0.0001041973177570106
1.100302866214857e-09
8.110796232246863e-07
1.484126510407035e-06
1.649757548341131e-06
2.418400521562245e-06
2.279134499793917e-06
5.870810717066833e-06
8.325152373679001e-06
1.084949865699311e-05
1.665116719299512e-05
1.563317018405952e-05
2.354083531629427e-05
2.336137403531777e-05
3.174424007376785e-05
3.381275740514946e-05
4.535716124925946e-05
4.502629467837956e-05
4.874077486922537e-05
6.034310984099069e-05
6.637390405226188e-05
0.0001079687637064206
0.000139189480662194
0.0001757385105623533
0.0002086572305368207
0.0003318149510865645
0.0003993506697183041
0.0004644395200438176
0.0001396665239582765
4.864112036871921e-05
3.653769364467814e-05
9.725206236973646e-06
1.312770852586748e-05
0.0001452088071456829
4.978608075676709e-05
0.0001146930910420236
4.238499544444997e-05
6.560794776224772e-05
1.735713246643467e-05
0.0002115267425187437
4.431606420340246e-09
1.670296986279042e-06
3.275694068345859e-06
4.584903012438163e-06
7.38894744000493e-06
7.571081108786338e-06
1.275871670011293e-05
1.111978872174487e-05
2.024895723679325e-05
1.740361761209303e-05
3.088454822200682e-05
2.604992896089489e-05
4.681086453458973e-05
4.157023360439046e-05
7.154631185857429e-05
6.777382975471045e-05
0.0001108130106551547
0.000116220013003336
0.000170585383779927
0.0001420358660350658
8.162968582592001e-05
6.792356786194195e-05
5.435029259858242e-05
5.809456481538914e-05
6.235501743987879e-05
6.376685000704894e-05
6.645511258053916e-05
7.06189686104833e-05
6.871598944156581e-05
7.193967703575515e-05
8.902598176311481e-05
6.740040530280957e-05
4.371640347917312e-05
0.0002942472134252877
2.026524078723873e-05
1.15734710667227e-09
8.681145898208651e-07
1.606320460856715e-06
1.796768171814849e-06
2.735345479535682e-06
2.100685392533347e-06
4.930766808634407e-06
5.315437575384501e-06
1.0831786416729e-05
1.743989436924723e-05
1.343945898178188e-05
2.331897129280455e-05
1.958980707002338e-05
3.583119719623131e-05
3.111699179841772e-05
4.571626888951689e-05
4.559167139752729e-05
4.89596237080198e-05
6.030039485118571e-05
6.629346199015045e-05
0.0001052773017876761
0.000136205942864176
0.0001957200701229916
0.0002302273091167595
0.0002576451919195407
0.0003775456340272056
0.0004687874714690674
0.0005334972246476388
0.0001869776090868719
0.0001349243176438403
2.728668354593801e-05
1.638083054025052e-05
3.500036582698375e-05
0.0001661492505576385
0.0001681632861812578
2.072484562435002e-05
0.0001042943440657978
5.505370563890572e-05
5.825269564699529e-05
0.0001385894275133479
1.012157588392536e-05
4.832398888860968e-05
5.208799137210061e-09
1.840302375746836e-06
3.411422917244173e-06
4.487736911093523e-06
7.521244246972391e-06
7.306183000439113e-06
1.306469250758529e-05
1.124785276589359e-05
2.06582746540438e-05
1.75378135733825e-05
3.151708803554655e-05
2.733569272039329e-05
4.762960987599512e-05
4.218715367736422e-05
7.318987769619499e-05
6.881861547910132e-05
0.0001139094295713356
0.0001213196195375008
0.0001776440982140297
0.0002152942848557575
0.0001483566891019173
8.704503878595018e-05
6.961905502538701e-05
5.503163544098311e-05
5.961907411891325e-05
6.489808056300227e-05
6.957738776167376e-05
7.313811160416383e-05
6.907414825786587e-05
6.507824502925508e-05
8.356172549572408e-05
7.282397139484784e-05
9.039329480672862e-05
0.0001063946224186767
4.84666459969733e-05
0.0005537445424794483
1.306731926286923e-09
8.879402544902701e-07
1.739667192551748e-06
2.077938475188459e-06
3.170829623244892e-06
2.162227198654664e-06
4.217412641573263e-06
3.976969852607551e-06
1.084120595630857e-05
1.53556362083041e-05
1.585324046843466e-05
2.404238671253314e-05
1.945039313751791e-05
3.358643614535108e-05
2.882994042372958e-05
4.289168904553501e-05
4.648760280615581e-05
4.898879068015128e-05
6.530722217120831e-05
6.655407062462099e-05
0.0001050355688520586
0.0001312905056499453
0.0001885368217548513
0.0002577504634192274
0.0002942677514319337
0.0003116422233993711
0.0003751333767102275
0.0005370143284370305
0.000598466696148451
0.0002514340851066507
3.921871380529805e-05
0.0001246066796982037
3.865603607301832e-05
1.898028632220441e-05
2.166996157299109e-05
0.0001872984184636586
0.0001242488885042331
3.462416374211427e-05
0.0001232494555197588
6.172002159765417e-05
4.860043986562056e-05
0.0002283038929975568
1.43960451773042e-05
3.634745823151433e-05
4.15041881436804e-09
2.407276281610304e-06
3.723611754606429e-06
5.043182126828462e-06
7.676623955266272e-06
7.501321225602128e-06
1.337492865626667e-05