/*--------------------------------*- C++ -*----------------------------------*\
| =========                 |                                                 |
| \\      /  F ield         | OpenFOAM: The Open Source CFD Toolbox           |
|  \\    /   O peration     | Version:  v1912                                 |
|   \\  /    A nd           | Website:  www.openfoam.com                      |
|    \\/     M anipulation  |                                                 |
\*---------------------------------------------------------------------------*/
FoamFile
{
    version     2.0;
    format      ascii;
    class       volScalarField;
    location    "5000";
    object      k;
}
// * * * * * * * * * * * * * * * * * * * * * * * * * * * * * * * * * * * * * //

dimensions      [0 2 -2 0 0 0 0];


internalField   nonuniform List<scalar> 
18230
(
8.48140905303457
0.895574584862034
10.57307717700038
34.27318054954795
0.6265954619312252
7.881334979558741
0.480190560888898
30.63245020861252
37.36105149045312
1.352748928283126
3.568446856599796
11.30794020871507
0.9142513002627598
3.517699131030648
37.872267984279
39.25539347525594
1.929378486716206
7.384859506023915
4.619629261923949
13.35187127846248
2.439941850971022
4.541952653105769
6.662552810104636
39.77665048186528
40.25075991092686
1.711930607158788
10.02629112101517
6.505705542272111
4.907312845166158
14.02885340610447
4.047818098829173
12.37189838470122
7.958371258853001
8.362566045653885
40.18443792103369
41.37144349050057
2.084776630136759
9.793811954447925
6.722406705934993
6.108520059770009
4.928933203377821
14.35044594354416
5.521656013807328
20.09352670532992
16.43135632499177
10.40547120801134
9.81829235619607
39.52556349014134
42.45856144988124
2.123619981953826
10.35721483971022
6.764744149166916
7.489166680443697
5.701444272912562
4.984208421908355
14.63854928428829
6.071423845291315
23.65993431123712
23.22289132695404
18.72331952269163
12.60839584967294
11.67402088988631
36.75193382990778
43.98752636587728
1.785598520942437
10.71236744604679
6.806983715649666
7.802347912319357
6.738053481369663
5.902181637209289
5.122805188596507
15.18957903492539
7.003949462307474
19.67307857120506
27.68697607215217
26.78913572772115
21.5042152356953
14.76761791671591
13.74412912707764
34.84379759459695
46.33069094610978
1.762772273238479
11.07300107591627
6.864702333905098
7.833602021527788
6.91199391239541
7.322365640556068
6.181612221898061
5.322145953338383
15.92020176892716
6.504689601016351
22.7219473270467
28.15203007730173
32.72104935677645
30.99090254633902
24.67921930907062
17.08985007391468
15.74980185405739
34.27033908180594
53.56147147294814
1.646957024787681
11.41091451676535
6.807226679517643
7.842551415559671
6.898593346474788
7.623664274013421
7.483338877800189
6.575009022243775
5.594919141357265
16.52335187558513
6.205449518933444
23.0527863750131
29.37602401280717
34.7877743681914
37.89070869716134
35.61079171342334
28.40994026577644
19.63577692991415
18.04757425956445
33.9788965112266
63.9135211433609
1.445605176749315
11.2977082352372
6.834132705326281
7.703862446239005
6.942013563719342
7.683068130487782
7.636448882663633
8.053361554110836
7.04715386973723
5.932719255837056
17.20421440453593
6.585730262375083
22.62468171753013
29.36290938658813
35.57575232370388
40.58984009929013
43.00591686790602
40.19986334241284
32.05227320151018
22.52211239979317
20.70524322646763
33.04135632885293
63.00072781611078
1.232904463601986
10.46713154105289
6.795000530003169
7.571865542609725
7.001718218035379
7.740629174901314
7.722220010670186
8.296579889249415
8.506221540065759
7.586538599398386
6.337032368603148
17.78821468565119
6.652340254456751
22.93206565987773
29.11442829022798
35.67261290561829
40.99956477962601
46.07861609465392
48.07190064417454
44.82597416443895
35.72576238696895
25.74178585241569
24.15150292921682
32.00594393038308
57.51925090464664
1.260045498594
8.034487218408723
6.614605058559451
7.469452112761358
7.054988810031831
7.806349070820939
7.841816894847859
8.436776398962175
8.681556272797092
9.142085680460616
8.205142889277937
6.808836273003234
18.35709039652562
6.078425639346369
22.9284618144893
29.3020872545795
35.45910960999743
41.10790857578622
46.46812710835887
51.28204442729555
52.97132881561568
49.37114119870193
39.59410584637865
29.27756946090691
28.35397060349525
31.31480790424315
49.45913226443608
1.292875760273618
5.686454467463959
6.072055325818522
7.272883566905343
7.105553271579849
7.899989291754869
7.995502951031471
8.600548703516655
8.851144090329688
9.374831888766654
9.700835410588795
8.869101343905509
7.339825365874274
19.00419496226736
6.64458041641198
21.90794033181462
29.10673909113293
35.54690695200912
40.88489769790976
46.71863778549664
51.61286076014722
56.46704157620841
57.68614048824706
53.52641693954884
43.21984626721877
32.96310017528361
33.82184005820672
32.71627073310938
42.1941409173947
1.463775855177627
5.615596959689086
5.888768514116353
7.06340078074747
7.147321963732533
8.023060672455516
8.154619905848742
8.79926199112635
9.045196148403146
9.566909766179075
9.894091529884042
10.35912968888
9.524250574860478
7.912955007342234
19.64255522175852
6.771908906417756
23.05757277107508
28.73722119689806
35.28082804040414
40.86506856080507
46.45885165404378
51.89084663605222
56.61865146860046
61.50465391162301
61.90447239892681
57.28225779062134
46.56079163609978
36.9120374099973
41.06508724197554
36.68273326282728
38.13771717436338
2.023048022080961
4.823352446489466
6.488579183434586
6.912004726652766
7.272445733171432
8.146865013599346
8.353980872095859
9.012332738727348
9.278903443480363
9.786490581679441
10.10682388439741
10.58274873780209
10.92652566901289
10.20635009284985
8.522796167872214
20.17274169367629
6.872399148756885
23.56948688925449
29.22264424678146
35.10932280552307
40.61594734523927
46.36681257932281
51.59918799339313
56.88882802973317
61.67569061106294
65.95539398713714
65.44234706891908
60.57264524606804
49.2900445773283
40.83671158966619
50.11568530326811
41.41887763082138
38.57422625311742
2.037829707459522
6.631637320567846
7.053308186957167
7.841816358975652
7.758830384873398
8.411892081878726
8.599270869383819
9.262952021702674
9.530642155678443
10.062571347302
10.34124629883164
10.8097159352831
11.11639955973591
11.54239500757342
10.87136458913515
9.157409432251329
20.65031019122968
7.045871965211162
24.04790832150293
29.52566678148201
35.52554316369687
40.41189521303833
46.18274494589175
51.3837562620368
56.67880075107733
61.74450376707606
66.18587903547474
69.4167530152592
68.51291832870375
62.32966335140478
51.32966916014393
44.3445973102777
59.62451037279726
47.11005251571335
40.93882107094777
2.103860651816563
7.652880493642209
8.42837908120986
8.898180943373957
9.037243305881073
9.228969735535992
9.047847496528497
9.579975344503389
9.836177757282853
10.36223443513788
10.6297103405116
11.06381844957993
11.34764450443681
11.74145554892182
12.10792633019721
11.56951505939954
9.818944712802924
21.03024485503616
6.496414140644772
23.62503424244867
29.17519308980536
35.56812163126263
40.70799447501033
46.06011459433656
51.18753479111002
56.58809820213951
61.46826866309779
66.43648823511272
69.75039202062342
72.20026618803115
68.86525642954419
63.57240398462732
52.31537751044729
46.73654669391204
68.72035190458587
54.17673292317936
43.42185096855191
2.128093316719049
8.144141202450667
8.947102532609625
10.52460594072268
10.62480372042872
10.44050611985736
10.15046786310734
10.13852662689
10.21319114687753
10.72534513778186
10.94977846617426
11.37323890058834
11.60321886789534
11.97060490666691
12.28534956225995
12.72881372624765
12.29764101833562
10.51273021628731
21.40832780760719
6.451374390316935
23.67170181801963
28.7659910175011
35.20303653326722
40.45632861333948
46.33665393547174
50.89630388761193
56.3362230846003
61.20805708716915
66.23469447065835
69.93339421371542
72.73273520511385
72.30012245428239
69.76852858307859
61.90730744152773
52.05189322170385
48.65643805078703
77.19758890557769
63.25691871957891
45.97091857604571
2.276306648291626
7.921845910847525
9.342523862125571
11.24150240266818
11.96480182262563
12.41328946536827
11.75170307865306
11.38893890925071
10.86076166105882
11.16811401205224
11.323967546537
11.71796720768023
11.90330520166123
12.2336982302614
12.51635561811246
12.91100967430523
13.36673580386874
13.06126698009762
11.25568153610565
22.03265763580287
7.09608547215427
23.0207589214294
28.91593435178216
34.71932016297657
39.73710120029836
45.95513940050667
51.08224438001903
56.1852932923363
60.79878509382018
66.08681231741234
69.45602145768407
73.02683589430048
72.89043535260461
73.09177243648043
65.58224820516699
59.18775722096273
50.14310812103574
48.70175317991922
85.61994216994832
72.20159159856878
48.50146236727209
2.749518357685119
7.570323701258943
9.409457221943626
11.61480818019134
12.48941478102677
14.27104469876044
13.79687588186854
13.35386341767684
12.28985277228768
11.92597086111143
11.7911725493863
12.12056735014388
12.24070472391654
12.53919008145624
12.7750977312344
13.13834665701288
13.54174804796535
14.040571354002
13.88793756098491
12.05171237227446
22.38280683909795
7.125838955729689
24.15365374321632
29.33331655979108
35.01848820181259
39.31490006718369
45.14732350353537
50.53472743108886
56.14469637217437
60.42196997575338
65.646116021102
68.96910470398358
72.81441048959316
73.13076473677808
73.57806125645386
68.63605296543948
62.07778232849834
54.12859183788953
46.37303880844241
46.81623799205216
92.11575884163437
79.86757129301212
50.87176336486507
2.361196562350266
7.95206260699323
9.451210152536619
11.54141864473833
12.82711184776236
14.92211085518797
15.32525407170887
15.74262310076385
14.40413413598013
13.55194377055498
12.57615552082952
12.61507824904848
12.63393527928482
12.88673156090575
13.07303345576519
13.39841906313053
13.77227600344371
14.21630516340051
14.79027118007508
14.7607926208403
12.90225852388095
22.32234348998639
6.106629045877063
25.61619345812078
29.95024955319134
35.6459758097842
39.64453014002995
44.69598462009942
49.55836338255769
55.73985961816273
60.18686073363033
65.2734346561224
68.5014553523103
72.35225858202602
72.7770137224885
73.91588458880754
68.86345898148534
64.77091745358635
55.04966527163746
47.10765100264599
41.06342245490345
43.03175252502383
99.16096988843961
85.91922260024413
52.67903805782122
2.764617069334021
8.253205924692615
9.763650053669611
11.49553965133589
12.98085148886402
14.94991598654774
15.8430615785687
17.30837637382015
16.67979571576216
15.84884269319371
14.23562205117713
13.43701276126212
13.1254811170032
13.2918206337766
13.40834023071381
13.69578906180813
14.02979796147314
14.4452165351368
14.97238058221945
15.58305655537007
15.69863526340703
13.80573792011778
22.03902626204434
5.818459364211015
25.46923253295023
30.07745924023343
36.21963555393866
40.84175818592231
45.07305367500856
49.07076812685282
54.92657221411493
59.62148511351975
64.80070273365948
67.90525187768201
71.64929662234434
72.32600504381941
73.61243829732268
68.86470433785499
64.63396300568846
56.93484197962973
46.75023793572834
39.30235438043283
34.96334295699019
37.73162041825882
103.1097094717663
89.97621869771278
53.63640751640116
2.224290198077114
8.437422695251353
10.0304092355553
11.79287132615814
13.12355778343347
15.11125831416807
16.10742355917864
17.89607854312783
18.08450869910907
18.3225499261006
16.49303753609951
15.18836962043584
13.93827930622296
13.79244077373394
13.80606345464926
14.02913488037407
14.3236626568713
14.70236615332429
15.20639442375525
15.7749238624483
16.46173209184881
16.70188218050655
14.73682374517502
21.75254805229159
5.419365176578662
23.78583524488884
27.47380761747023
36.06384489839974
41.14671373531097
46.33886389871046
49.52605062261161
54.15893200406447
58.72930806357736
64.15409507574618
67.28578502045697
71.17060226383585
71.48705413042805
72.99169503292509
68.3851508898986
64.45994653055966
56.74400015569373
48.00851252932712
38.37620683959582
32.22695172429901
29.05712257009339
32.0330897861036
104.6544223222523
91.99525632593526
53.83139608107822
2.258100494875158
8.051004546193392
10.18293037366814
12.12193785538705
13.41958657196575
15.30572365890317
16.45460894975265
18.27492351472682
18.64145500408227
19.93567421109102
18.83045828724983
17.62475512063345
15.65337884953247
14.62232863286118
14.30029587667117
14.42581773852964
14.65135783969841
14.99419451854474
15.45962059838499
16.00598109799098
16.67277683525561
17.40820805295563
17.76850349046315
15.93993384502878
21.82210646291608
4.947176236927557
22.28779229391256
25.88124642052994
32.87129571662582
40.33663989864721
46.48054598141603
51.06325264455146
54.72356139039488
57.86347004427564
63.1714438936121
66.45907959994419
70.39494658665768
70.69599148867923
72.13132909999635
67.67345170809139
63.81646606857611
56.53591360850992
47.79847898943337
39.12336036551245
31.46977228000289
26.70312447513203
24.28955155280948
27.05243888049403
104.4486024373134
92.32865904857439
53.54882882454737
2.2580101289783
8.708151860442614
9.620406093820041
12.44091788381553
13.67677038804446
15.71272673768896
16.76431082935423
18.52602126975691
19.13828189715186
20.52916098462753
20.36924145117941
20.20256577890055
18.02452251405597
16.38524143979733
15.12238081963737
14.91715413908356
15.03909322804474
15.31865741446053
15.74719571140676
16.25737810466119
16.90803917623016
17.64026984965528
18.41615875243536
18.84804987171764
17.31802706029141
22.42602686828072
4.424106549506343
19.60080853429725
24.81648766304484
30.79162553634128
35.73786864129641
45.50477796349459
50.76233619395493
55.86145271680574
58.3867911848617
61.97639076609337
65.20328332556193
69.54478272963091
69.91260941990383
71.42347715092504
66.88103572669499
63.02948634819784
55.96666044277551
47.59265764693875
38.95210673880944
31.90087250013267
26.29993555760124
23.36696934218026
21.15270371243933
23.32608347511081
103.9412624758841
91.43618340540836
52.97688687358256
2.315453947981675
8.624455207697313
10.01000715483335
12.04920403378562
13.95320461386175
15.9701976843064
17.12972043760995
18.77025960268896
19.56308420096459
20.9403776314473
21.00370589055564
21.83301211471708
20.42366893382377
18.8709153084138
16.81550150982427
15.72967927069124
15.52985671704734
15.69507897206909
16.06481098371667
16.53557137692485
17.16195989836006
17.8800201698314
18.67901174170198
19.48218422991507
19.93236287474146
18.78672439539721
23.48766341013436
4.905749329270948
18.68006613062896
23.28047740288574
29.88717092311035
33.47115367869194
40.39433619880247
48.74080092330346
55.0464341358587
59.54323409544862
62.23698654542051
63.80505018782984
67.75199465066851
68.77564129184725
70.2836905704449
66.0640415257249
62.13248972060997
55.26430073176159
47.07824172594453
38.77289092641593
31.7876515240266
26.52300587823493
23.53389045376965
21.81434172398829
19.47581335140882
21.45562121746794
103.6832210199267
89.85939581293506
51.85682028350612
2.316949207643723
8.538092967847541
10.02619501756531
12.40728564542303
13.5488656007688
16.15084010234081
17.29546227111381
19.17002014374231
19.85112381641505
21.29848030915144
21.50426377290129
22.52385752018769
22.01136835986334
21.44988823555006
19.16860642794973
17.41299078557346
16.32783263571292
16.16759239228708
16.43709720002726
16.8423673618162
17.43780770354527
18.13466983482328
18.92789855237411
19.77715110982007
20.60899819389903
21.0238754384893
20.30332114914364
24.90482360163974
5.30651953677094
22.16726733515155
20.68586230578029
29.71433751822202
32.8377493637122
37.88112913340964
42.45396947405927
52.5442102763538
57.81640281697008
62.55372444688887
63.66019317383687
65.47608060561306
66.74184994934301
68.80474923476153
65.02782899109047
61.15148961724802
54.48395023186485
46.48529382235182
38.37197180515451
31.66974863374046
26.47614732677572
23.74487775751607
22.27705721732206
21.54498072335858
19.28738652343224
20.81679533863363
103.9994272967784
87.17089416304118
50.77400950167397
2.321158446473924
8.426671940625688
10.06312857123121
12.45114854373824
13.76993464851178
16.08223658657336
17.34875840594749
19.33710891193129
20.13150835460783
21.61838966205386
21.94205330083641
22.93541201012865
22.71131963797484
23.0830710511721
21.53008854303712
19.77645090062568
17.93639556053955
16.9360788442731
16.91301529959707
17.20052410995176
17.74175027483481
18.40425321813762
19.18791685322743
20.03902024805773
20.93572505877811
21.78631007601366
22.14536817879764
21.90503892657148
26.39550602853901
2.350000274795969
25.85231074820944
20.43691178415173
27.93193779878694
33.04366201890693
37.10648152238118
39.65897731379905
46.18160720680237
53.50124385704967
59.86484741578383
63.83130082774885
64.43250432263676
64.08522074326852
66.01771703601084
63.5389509646758
59.91568268589468
53.61573084248879
45.8157698726047
37.90604308367229
31.39476996889401
26.40556815169607
23.74838062880243
22.4572400281001
22.18024708824838
22.1113837944043
19.85114190274991
21.12596289666044
104.1823180809964
85.9820164775234
49.0800216620875
2.312618131307463
8.428104560000568
10.02797240279696
12.42861419832643
13.85123000717936
16.21542563830143
17.26054218990035
19.40077714083971
20.20830188730584
21.78841085498216
22.24108139933532
23.31773243881334
23.19479048086204
23.76735270911678
23.11196438336172
22.22652751797921
20.16107162161876
18.49921996327323
17.67493029617814
17.65700526707915
18.09674507417379
18.69996971457756
19.45603185887718
20.30423175838099
21.21580699749977
22.14345207097629
23.01345391867758
23.38545540083056
23.42455056497223
27.23785622662486
2.176758027029301
12.6884641198195
17.44636229516096
29.65720425575497
28.81721039470373
37.52415504608239
38.68373426008649
42.86737327040282
46.25477205944059
55.0175037013219
59.617290516546
63.39596651267541
62.34918869658316
62.39494915830458
60.87112339508163
58.14210872053734
52.54953968699102
45.10537853989499
37.39500683564398
31.08152751281151
26.22503135407512
23.70276846346981
22.51456993128705
22.42703193738014
22.89647630608653
23.32672791908521
21.09746774076607
21.96844190679732
103.2767557695227
72.85625027314471
55.17601303159512
36.74377290319012
2.307898843933005
8.446026078438154
10.04739644248821
12.49053875289272
13.86282816702257
16.11665745030099
17.39414197485143
19.4452005670214
20.19693914660107
21.87205251502473
22.36521657004648
23.54473042236733
23.57441164186082
24.18594108432358
23.79940987341942
23.82947236209523
22.33679303090324
20.65616415741667
19.16101392248671
18.39380904652754
18.54785920530988
19.04463494504772
19.75071072056879
20.57269822966004
21.48519750439651
22.44800736709941
23.40911287558299
24.38478930435828
24.57565082901546
25.16896452959387
26.71296400948117
2.259620386070899
10.53888414161001
10.36933800340441
19.80510985546675
22.81375907971325
33.83223282843486
38.65359516876302
40.68983139072299
43.14470961599864
48.14413041504024
52.69906997713488
59.23176145815504
59.91999924268143
59.67139225588435
57.20885034306539
55.04646138131281
51.01766711209228
44.21840740125774
36.85889048886266
30.72411691752258
26.01699319600101
23.58068834802041
22.51370226743197
22.4656209483413
23.19852976582156
24.26497638718389
25.09911502844
23.03108800422996
23.27518914747459
86.48210178056016
123.0009534975537
51.11746749490704
38.43958912594068
2.328449269741837
8.310855234847214
10.02914523215512
12.58119362993691
13.92649062553339
16.14944707926622
17.35187131664473
19.55583796318385
20.23686150547739
21.91744511895774
22.42156012667909
23.68581169890595
23.80595236934152
24.49615797528923
24.21754948953197
24.49678203700831
23.8351690689122
22.84406645307961
21.20847123605413
19.83615282047977
19.27744688550916
19.48358842978054
20.09321453802444
20.86859878100098
21.75401335524901
22.72051767699187
23.7468040564596
24.83090798083926
25.72326102086749
26.43170274826732
26.18352476753853
28.12778758540759
2.426821349318963
9.287206244305908
9.989307527517695
13.08661716463117
16.62948398359046
27.47715830112513
33.40971902456239
39.96678978747975
41.85711140629039
44.17013804001247
47.15883364031719
52.50660268381203
55.56429194685292
56.35966748832819
54.49709451326016
50.98041953784715
48.39180164888371
42.99114679562515
36.16799474274626
30.36373262869231
25.78454119353183
23.42841013321489
22.4328772357838
22.46796102088377
23.2567891929398
24.63648092067217
26.19837761834681
27.26130736771469
25.36667822106815
24.17289989443679
108.4532693854193
37.53564693917877
115.993807250559
68.51637975852904
49.11832071002295
33.17419465056687
42.30178611842355
2.306141756317895
8.522789811774571
9.936820567387816
12.44408312610748
13.98788070232632
16.30066095275048
17.39728630137641
19.50370214114501
20.38055271058219
22.02022834253457
22.43391417275074
23.77206711023024
23.93660302017425
24.72960687512121
24.52971735962224
24.86317715845171
24.47247296880406
24.34583215245916
23.15920262776035
21.78777817501056
20.6865658690897
20.19887169289495
20.53447762365476
21.21088071238001
22.04918128262114
22.99382985098615
24.03258663152724
25.21018661348964
26.23408421004391
28.05818348759098
28.40878905841965
28.2614369082484
28.52634232571693
2.637262328716849
9.359896345246046
10.43615342416327
12.18297163448651
13.38062022049433
18.83832203255362
24.47963741851123
34.87265137027965
41.22557536594972
41.3550221021158
44.16328204726145
45.94436665056871
49.8638613649967
51.72748872171277
51.7620432971371
48.11363951860122
44.98516661206762
40.89726563441415
35.23259711130881
29.89348841084071
25.55050710998114
23.26597439697104
22.3177271021862
22.39896735153278
23.24848029042504
24.71725477788464
26.65254504184821
28.52431292089869
29.80015642659799
27.83656808831459
25.19405404450837
27.05328725204125
82.37551706993358
31.59997911242342
130.3803091012171
57.19168210613257
50.31599640353254
34.33263082111672
39.86912131873059
2.506570332617489
8.567639821676035
10.05788688324638
12.34127857196463
13.94335105278606
16.22511414845222
17.50138353284792
19.53329513973859
20.38743715245393
22.13703159814158
22.53031581011039
23.87345485547693
24.02491122753009
24.91291591467011
24.75601238024254
25.17227110053182
24.83538271201848
24.96870341653274
24.52097391254505
23.68793985993436
22.54558783199634
21.5719008004294
21.25025366595975
21.65607174398395
22.39316569860197
23.29267072781174
24.31973305136814
25.51990196963908
26.66651779451
28.65669216267177
28.75413764537102
29.36455658321257
29.52296935773133
28.78552610448216
29.37081861289723
2.653708187720461
10.0717700275256
10.87432436315407
13.15946611513644
13.27515438468649
16.08343889086162
18.73617603689228
26.87766441093634
35.44556852749169
40.33691949343265
42.7474122243794
42.12967886320613
45.37262212159597
45.52484005567555
48.23630796966506
45.59554518124611
42.66858520063555
38.30602109794965
33.66695212220384
29.24717014942551
25.24725009686204
23.10005420069908
22.19385556739055
22.30336288449266
23.18086263993386
24.71228228548475
26.77063070755557
29.05777573883658
31.39140664575456
32.75883462026653
32.24669480185717
29.18654813452146
30.39188523477541
100.2086211480481
34.65698120106616
33.4674065664268
121.1192972601089
54.31437716796268
73.67681561759215
43.83997347605521
32.39614468964735
37.78753532772292
2.963621620128445
8.340555995299011
10.14900553798293
12.44730514070273
13.87220793787801
16.32512046940104
17.48041745784046
19.60803083624591
20.4328051274671
22.18447977286639
22.67903744425466
23.95943608222852
24.10586409110234
25.05259593542759
24.9406456495011
25.42170756787567
25.15045849323154
25.32159509021361
25.10858508986361
25.06481933496515
24.30662630977762
23.36378039242964
22.59665921300946
22.36797960772573
22.84571005002337
23.64510446057335
24.63358623998429
25.82911521245521
27.00810069001946
29.20681121603595
29.82624732538148
30.28729752830004
30.52697877000803
30.41887711470513
29.97652149676745
29.71494001411678
2.862066324535276
10.36386917100289
11.53573577685862
13.71425143562929
14.45209968251998
16.45371194846288
16.51128228784021
21.35043668655136
26.61478011621689
35.68267345539083
40.81771031867663
40.21615675085669
41.73230194272983
41.71606207593592
43.63753183260565
42.83007102315776
40.70989768489096
36.68388531162022
31.7541671413126
28.17307787821437
24.82764024961746
22.88601357041193
22.05768560804361
22.20380467967356
23.09310568694884
24.64621875586791
26.77179825274697
29.2087829128482
32.11065367857419
35.02223366865763
33.93437000861154
35.43680724773982
33.19873881442302
31.94111872255127
31.27942449840119
60.39551064084342
33.2358003622611
36.77873468879609
134.9690452027257
53.86622645064011
60.72675435173529
41.28458494158813
35.27479712142453
38.61093216770063
2.288531331273409
8.705928302891952
10.25927203304385
12.40573198938133
13.91135174743268
16.2889143844284
17.56455861995986
19.62038045521111
20.49074364833385
22.21970000607242
22.74411586277516
24.11973035833486
24.23662261539182
25.18729234345051
25.09762467458355
25.62815216592931
25.40798103389548
25.65392983383112
25.45908183693193
25.64489848790981
25.57643794778917
25.10543419312298
24.365283895311
23.67884105296616
23.57220429058959
24.11176302141973
25.00506104931212
26.16307858769285
27.34014893188026
29.59088217789951
30.32915996710242
30.71222867244592
30.56914628483491
30.77332069215338
30.99315843665003
30.77936905542275
30.30686435119112
30.86209280950807
30.77317161938824
3.029940460123512
10.37289912524544
11.92155580601154
14.34729273578627
15.23764067453661
17.40898995430445
17.02502200322668
19.01275317903802
21.72804256725978
28.79032561344606
36.37560462350196
39.68929773979809
39.9823894048662
38.89485236687597
39.81306502685852
39.43489675147748
38.53925292616866
35.45564051661621
30.59519575253435
26.87904537939956
24.1295965769719
22.583792247593
21.87728825826306
22.09403544021593
23.0069089910355
24.56428313207091
26.70219755146541
29.20892321644395
32.31446060127441
35.80759657702412
37.09620052518923
36.90118395284631
37.23288394365137
35.69566343995034
35.38611898404477
34.39097689349605
51.66839258485016
38.99330314466983
36.11937200814033
82.91286298172454
102.0424272250614
56.07078325121287
46.04987038525229
39.82206005570054
33.57587506300092
2.354577454201027
8.295372969024147
10.44682768439005
12.38518284728977
13.93552584936813
16.25314410728389
17.5718068287646
19.64427977703533
20.53042045803456
22.28140973627424
22.81462398923821
24.14109539902415
24.39356524760194
25.33121602110922
25.2439851846042
25.82050189011702
25.62818461168959
25.93180503645245
25.79683293430526
25.99573598675041
26.1411938938527
26.36348647960643
26.03896705245442
25.45424897423844
24.90991158957374
24.85841949268367
25.49592618994958
26.55898038926797
27.69616809160213
30.14545168866719
30.1757117241795
30.59040674783934
31.17553979317665
31.23616532693245
31.08420822742772
31.34585319431511
31.40886383129699
31.21103759256651
31.09614448093626
31.67933649101463
30.90084021396343
3.173948600280828
10.55639931763818
12.23617108018564
14.6763661182323
15.82455568104938
18.38875444191559
18.24464107023322
19.67692408710019
19.32932153401708
23.93801396977855
28.95754840021362
36.60409536715435
39.12186101297103
38.19763535686803
37.25064719277288
36.77596576848182
35.56058912179407
34.01492210618576
29.73671111615602
26.16403656488561
23.30936879650491
22.08923515005528
21.64046279106293
21.94987669797542
22.91619164223101
24.48760455987471
26.62342172921222
29.13937409788809
32.31597558821168
36.2616561231025
36.98782515271194
37.18682576712894
38.36879345794799
38.06102841080852
38.46442192963991
37.72893314214124
36.8252874972092
36.66137435749066
43.71223105192306
42.78826028321699
36.39811675946891
69.2733861262427
100.9181196939386
51.8243977597679
44.00858400824762
41.79378584626637
34.00981740540069
2.366820305238539
8.223315504854053
9.965208462310011
12.53899499154684
14.01170579607153
16.25386500891338
17.55746021109422
19.68168524955438
20.57776636758899
22.3484849500326
22.86801441424226
24.2817176806876
24.44547261941037
25.47030017077117
25.41249284396766
26.00274240409394
25.83379784609819
26.17280460916574
26.08095819227794
26.33838762123954
26.49058334987969
26.95792674747565
27.20882505644204
27.08705596380989
26.67459580190753
26.23304253969657
26.27168113064161
27.07201956045133
28.12879646745416
30.37446644930855
31.10606504260059
31.15510131768122
31.30129150504499
31.56286120682759
31.55794256702253
31.47169643840914
31.75994300134917
31.72519063150157
31.71067749818884
31.81433974566691
31.06221215994015
32.07789903556007
31.7794502988758
3.202085946833503
10.8786131626346
12.56665954019291
14.87537136990185
16.34058865809064
18.81164792648914
19.25411818673108
20.9619250005608
19.95355129072476
21.39443739331952
24.16435225450414
30.63936462054973
36.15691727670064
38.34011471886456
36.34157602341989
34.90255828392824
33.03466093731802
31.79046702023787
28.66044688907641
25.69702696502007
22.92036889989674
21.53682870216056
21.27446947783381
21.75343498610664
22.79530024910687
24.40328274616421
26.55123923443885
29.06697334295263
32.22656732108643
36.08764974233662
37.23888570168954
38.57407555445513
38.41389074523007
39.56013038529703
39.58534216970289
39.55310095621207
38.96782348874111
38.54064521444682
38.79660055118122
47.16175798586983
45.39709953129579
38.27760049709931
37.38283763172986
74.26876035664847
91.83448307840908
71.25897066219453
48.98474141856212
42.24512200570951
41.76725212443066
38.78248813482807
2.337139912519969
8.337906917137927
10.00730710033649
12.22639988235818
14.11086957090614
16.17617095346827
17.63638841694346
19.68802809243946
20.6385888453224
22.4104865296113
22.94370935232328
24.35352598120182
24.57435596079259
25.53970052790308
25.55143137901652
26.1681174026232
26.01739463821737
26.39618769584724
26.33016939897445
26.6299988458947
26.83470069423537
27.30472575979408
27.79162232371213
28.24395418269306
28.2721089830857
27.97616182167715
27.68534120455625
27.87586737613975
28.69291887977191
31.04235942628478
31.46370618470596
31.83618428727858
32.00588004010036
32.01737850560217
32.03027211397845
32.04264173262779
32.2529684049864
32.14486835340332