/*--------------------------------*- C++ -*----------------------------------*\
| =========                 |                                                 |
| \\      /  F ield         | OpenFOAM: The Open Source CFD Toolbox           |
|  \\    /   O peration     | Version:  v1912                                 |
|   \\  /    A nd           | Website:  www.openfoam.com                      |
|    \\/     M anipulation  |                                                 |
\*---------------------------------------------------------------------------*/
FoamFile
{
    version     2.0;
    format      ascii;
    class       volScalarField;
    location    "5000";
    object      Ma;
}
// * * * * * * * * * * * * * * * * * * * * * * * * * * * * * * * * * * * * * //

dimensions      [0 0 0 0 0 0 0];


internalField   nonuniform List<scalar> 
18230
(
0.2413512527119017
0.3141284819364958
0.05877930097191234
0.2164084420698116
2.231694062428628
0.4171290005012779
0.04967668701045278
0.05038283900580544
0.2079395144978179
1.71814270827622
2.298063501642733
0.4466437660436982
1.161654589504197
0.03668522959582426
0.04355213521291798
0.1966255112358581
1.530939852285784
1.759234764416127
2.290134609851145
0.4931931056115139
1.81133108929952
1.145409636385322
0.0284147598765111
0.03575114537056221
0.1892198823219068
1.519087385795774
1.58128386911308
1.739257573543605
2.285289289075326
0.5279063894977658
1.231982459028792
1.80246926728581
1.140802750607401
0.02114282563927434
0.03543664491418112
0.1793885992776409
1.507451520585837
1.57720968141125
1.572574314448308
1.748409621807987
2.275607826548274
0.5580271611770155
0.9497663756853389
1.211615030822222
1.800136033498546
1.133109200289951
0.03232255816637102
0.02894351676551695
0.1711233719329984
1.48683144733411
1.563226706951784
1.548840894463613
1.594021003161765
1.738226367892055
2.263182314815898
0.5858305450454386
0.9442952661007072
0.9812094594368327
1.20911216920271
1.806588526896095
1.141764333208449
0.03590075085575847
0.02538097846044113
0.1604292337785334
1.463775892195179
1.543580710953768
1.535690373886361
1.576415435580365
1.58481866232139
1.740981265224463
2.248592485708634
0.6151778861593471
0.9172499962869018
0.9512897432602188
0.9857355379490619
1.210631704776366
1.802159118682372
1.150797579043935
0.03979782919851239
0.02416037195865609
0.1481779615769465
1.44073345713218
1.521645417876592
1.516024643878136
1.563427302884891
1.564396026977572
1.596414094143709
1.731172446049765
2.232545355812322
0.6530476484908931
0.9090150097832784
0.9301899159716226
0.9533633160594454
0.9925321351878851
1.209361756405227
1.801156904578273
1.158555631678172
0.04791710158012981
0.02604786392100138
0.1298375335968195
1.413550668865883
1.498968086291362
1.494882981050656
1.542638607125727
1.54991572364732
1.579327371365135
1.591355513480173
1.728438433494061
2.21366814467493
0.6981299458411097
0.9088983352109599
0.9271615709930128
0.9322669045046592
0.9617669697918768
0.9950655169008238
1.210739417403541
1.791704820321565
1.167883684733794
0.0642715946552279
0.02836069057117898
0.09032392117310692
1.386187613886198
1.471111958785565
1.474290203358109
1.521386025471622
1.530585258961036
1.565229737377181
1.572840927978508
1.597651965020532
1.719587034608078
2.192562229477398
0.7413523961667775
0.9127119068862402
0.9283310860172546
0.9274581232070744
0.9410761928974648
0.9628553755446791
1.003016216068117
1.207729088705383
1.783695717845485
1.192922421635662
0.08374154590423237
0.03244306561195992
0.05096056249527826
1.351505846059184
1.442566812058155
1.448424292497508
1.499009821725472
1.510137755747814
1.545546638072385
1.558374706207928
1.58108383205372
1.59498140676661
1.715236763306657
2.170157669277467
0.7946487382791509
0.9193363011214065
0.9325747924916055
0.9278590906795522
0.9376839185702983
0.9429706900170194
0.9727503407887333
1.004308930117942
1.210534173641851
1.773992573672831
1.219145803455743
0.1088277864530272
0.03870659055502589
0.02765788371435493
1.267043500405616
1.399156275760509
1.422456269900039
1.471646902985531
1.487003818455555
1.524421173637168
1.538566639051746
1.566945428091185
1.577816079647718
1.599334906256149
1.706281355794116
2.144931830243561
0.8498845706588994
0.9230143812783959
0.9395058768042869
0.9309354625183056
0.9389528502361096
0.9383485793326964
0.9523960064700595
0.9731270718514781
1.014725748411946
1.205914862094838
1.759993718935026
1.258091720165111
0.135279916398967
0.04419558788561376
0.04588577869069844
1.138567236500881
1.289250276364722
1.380805937303011
1.443530381168577
1.460366469545399
1.501126854491528
1.517918396066638
1.547287352741739
1.563362426171222
1.583590325710842
1.597836730180375
1.698398624714826
2.117251627769935
0.9069849683174676
0.9294675638029828
0.9433266009931672
0.9382638561832439
0.9435221026435905
0.9388758797259183
0.949253243394211
0.9540142459775187
0.9857510174351217
1.015659666912583
1.209510323986378
1.741541015593024
1.309239091121934
0.1648957640123626
0.04618511831246006
0.08492626598018078
0.9687249896060894
1.155440203875672
1.27894035887776
1.400807409135823
1.432687960487758
1.474200696503326
1.494036820782275
1.526461792439004
1.543560159901634
1.569228884183138
1.58162600627379
1.60118200430279
1.688040974941661
2.088413938896454
0.973694687373432
0.9383977455824064
0.9510257888796622
0.9400868566352034
0.9504326455219025
0.9417894269072555
0.9507024771219841
0.94974884986439
0.9657191203056055
0.9851539020998422
1.029667714287143
1.204010587917124
1.723166298753556
1.368153146938362
0.2049863677915109
0.03938146166611261
0.1245471399061265
0.8677467490757405
0.9739932213259386
1.148615888319639
1.291199685436958
1.390263799919064
1.446083900677588
1.46735234292813
1.503067005322754
1.522706775147431
1.549611866477645
1.567267981814038
1.586334975288448
1.600451002605921
1.678711182133788
2.057254125744191
1.048002066427156
0.9524772050797429
0.9609009581194012
0.9472042911468872
0.9543270534677908
0.94890903645382
0.9555338961118962
0.9499572152927562
0.9630630708182806
0.9664484274126747
1.002301586876553
1.028972997771864
1.209501634525871
1.703142692537422
1.445881618240026
0.2669428550692232
0.02940903738581497
0.1617927463091838
0.8224766535081021
0.8856157923105646
0.9679959300175005
1.158354415811007
1.281998753197164
1.403442678807666
1.43940114122017
1.476491555397492
1.49921429027564
1.528941773976315
1.547365123273178
1.571931428275672
1.58499281019554
1.602590039552705
1.668686238744381
2.026501121655641
1.124067891392476
0.9765714865681127
0.9779606867766865
0.9564771092034099
0.9613392755087812
0.9505841827811276
0.9622964867849558
0.9526559804171908
0.9646837997310503
0.9622004909560589
0.9833658005232687
1.000017578801967
1.047825927731246
1.20371664659586
1.688500138385678
1.536731940914861
0.3409213457058629
0.03316530632545556
0.2000042569177411
0.7951254900891573
0.8471075056568247
0.8732008688353037
0.9782433119353171
1.151986054824725
1.294136147259981
1.395504987203144
1.448576867962375
1.472400483341799
1.505706808978437
1.526575323163842
1.55223952606006
1.570620242586693
1.588736985627272
1.602256990330078
1.659978729005692
1.995451089449723
1.202799277575725
0.9570843425600619
0.9994609370969298
0.9726443753413427
0.9712723595559242
0.9579529579080338
0.9661833855255896
0.9598201330302709
0.9695959802963813
0.9622289114036636
0.9805871533377972
0.9824861550707903
1.022265211057179
1.047868604200599
1.208680333914586
1.672981777019639
1.616345182209595
0.428601594395585
0.04438838821835357
0.2454242500430338
0.7711946381285836
0.8188521064256425
0.8307390635784716
0.8905732466619605
0.9703053028362369
1.162523807492304
1.287585662397971
1.405832833132818
1.444280376443926
1.479450180025465
1.503242532958935
1.531667744715091
1.550695939685814
1.573978740431966
1.587818182820194
1.603257655221298
1.651168293582514
1.965744637609489
1.27800178743473
0.9230964792352453
0.9807015970307086
0.9957123515811592
0.98900153290218
0.9673971744079771
0.973464269523423
0.9614213320257392
0.9761830320403342
0.9653073048412385
0.9822624160577293
0.9787772249465332
1.00415737373882
1.020825863119538
1.06881079622985
1.205442833573856
1.657317372264711
1.693085103629503
0.5294662554222348
0.05506744165788342
0.2933825570669551
0.750195720450384
0.7909069562376823
0.804804457380764
0.8517039800586766
0.8774737679497456
0.9841682798223872
1.154729381656049
1.29761244120066
1.400256629626619
1.451669185872417
1.476728880833986
1.508650499207375
1.529947609890794
1.554351743094414
1.572839391392667
1.590060051777762
1.602948683350954
1.643667284757929
1.931497828506535
1.34897701411068
0.900682705281125
0.9404119628939364
0.9776875723589653
1.010303460175978
0.9845585764582924
0.9835775788625337
0.9696357753916461
0.9802573135958783
0.9723345076971667
0.9870183668685306
0.9792609755694027
1.001889484779644
1.00443975914684
1.043457713270441
1.073550504723387
1.208521215048066
1.629026451492032
1.747174495591785
0.6357406520851629
0.07544882140970328
0.3475908642633459
0.7292829692293291
0.7657529447077077
0.7808838096104498
0.8235887587092163
0.8363142135914451
0.8970620688849846
0.9739144077437633
1.16735869179032
1.291648571439926
1.408896071125652
1.448626492387226
1.48271989356731
1.506823434413132
1.533815136500116
1.553085368079782
1.574582641888659
1.589356837793885
1.60294492211091
1.636238947253452
1.896005266203173
1.406054792322547
0.927087492543882
0.9195280951281986
0.9417819013930252
0.9916065226503425
1.007515472782238
1.001111528694062
0.9790105808728469
0.9878013793305561
0.9747686116094628
0.9933257692869558
0.9832049912354203
1.003278933815753
1.001161996109165
1.025909863163873
1.048234567583969
1.089151488939653
1.209249774194833
1.59295549031231
1.771382202024252
0.7351259997131137
0.1088488283600479
0.4055639082223476
0.7042797792431145
0.7438770938906726
0.7581755749489574
0.7957646317940505
0.8109583086523103
0.8578991346169199
0.8841516574261198
0.9907880552961817
1.159497973513957
1.301720906022783
1.404482180230299
1.45510223695482
1.480848070530681
1.510980954956387
1.532447023057794
1.555137531536354
1.573369689196525
1.590078557158558
1.601552382648819
1.629568237406186
1.860712102298563
1.446097317454446
0.9674951331076543
0.9538165031444412
0.9197606274925586
0.9517642028465412
0.9900690553839752
1.022032647329411
0.9965830619076517
0.9981151932313636
0.9831810631905659
0.9974027026429449
0.9902164330849859
1.007112777175512
1.002411077317069
1.024535937872322
1.032374620869985
1.064977870998112
1.098235934393024
1.212031049100905
1.553023107156673
1.777777702894276
0.8213030121809767
0.1522020863653295
0.4647716624323774
0.6852998817189234
0.7219964631826012
0.7354047292675764
0.770599266451352
0.7861233336971217
0.8292892452809461
0.8442041789704841
0.903482593382776
0.9805570649125479
1.172373720228309
1.296985700871582
1.412053777128712
1.452869058366697
1.485528117549207
1.509514657668952
1.534669797078372
1.553932185998854
1.573403796580827
1.589411520940433
1.600301249568697
1.62340962269496
1.827133207095575
1.468080334204166
0.9942938866081533
1.004816225267362
0.9489702506899287
0.9314290949668416
0.9543263356172113
1.00337210118944
1.019995548471323
1.015354985345973
0.9933055019315971
1.004769008535907
0.9931602185523056
1.013424283944443
1.006831144574149
1.025702757612307
1.030864876521103
1.049538397263157
1.075532793124648
1.110836488375652
1.210935647219554
1.515305949584352
1.773463984199932
0.893259654689898
0.2011373981542929
0.5239764829645468
0.6634948202662896
0.7024996797315775
0.712504195018003
0.7484087510960308
0.7624060020648071
0.8016358042384031
0.8172687345559547
0.8639315654525804
0.8917481034898219
0.9972309302853283
1.165357871360479
1.305674121486362
1.408435313232246
1.458005755373993
1.48413846436094
1.512096513887633
1.53338331175888
1.554293126740349
1.571638018296804
1.588298869492075
1.598500379510046
1.617737233315166
1.795723391594146
1.473292937414217
0.9641611473183921
1.027985842790924
0.9963263413916136
0.9675682720779669
0.9333907208143436
0.9642751068566987
1.00284353301591
1.035989446860284
1.011865627500817
1.014963936300964
1.00150136985989
1.017497223132801
1.013419564749147
1.03028854030902
1.032674190531152
1.048386917211974
1.061254044070978
1.089799615071428
1.117287731892935
1.210704177979897
1.479631806134478
1.761472869983901
0.9472016055132613
0.2527109265949842
0.5809877760834221
0.6452203091327461
0.6846569617526347
0.6919147022661074
0.7265963063422992
0.7394532043494985
0.7767648199992493
0.7920300031883011
0.8353305039387434
0.8519965736888149
0.9097804584705396
0.9878038453722299
1.176789406842072
1.301722482577399
1.414399908874343
1.456276453418374
1.487237506326815
1.510853705481129
1.533925156991279
1.552683034760051
1.56966930419368
1.585789269555835
1.595983148140784
1.612025280535296
1.7670933969376
1.461295246295687
0.8954334033301444
0.9906147663560995
1.022095435281297
1.018084105484769
0.9646638919142079
0.945196908455641
0.9681918678621398
1.017484763294754
1.03544746381169
1.032136968246462
1.011681550519102
1.024556564569044
1.017007968068276
1.036303940855866
1.037779041425042
1.049796570576996
1.060312231724722
1.076551387237835
1.097521666621997
1.12621423829951
1.206650218726914
1.444890488309623
1.743255723444614
0.9841429185337504
0.3059481258425759
0.6321369705330864
0.6298792049141139
0.6682514476653871
0.6721862896735206
0.7078730708872127
0.7169331260572216
0.754840400654186
0.7682278943672836
0.8078471602364033
0.8252935238216023
0.8699292541073369
0.9002865823413687
1.002879967187778
1.170772445885724
1.308694017341222
1.411406725356964
1.4597248708408
1.486105070307862
1.511761748770206
1.532360521546649
1.550971660698599
1.566440693706856
1.582134895418051
1.592157898430056
1.606457995122364
1.741845204997639
1.435678762745283
0.8525633980892741
0.9203699044165587
0.9910219159097798
1.040781631854043
1.013380223602943
0.9840914384205314
0.9484533996920882
0.9795063988760812
1.019314429267479
1.052656380732298
1.031259185401542
1.034511848809272
1.025007562933909
1.039816976543174
1.043893160326817
1.054909928567363
1.061893588126375
1.075920931385534
1.085331152536591
1.108124902840724
1.128971762173833
1.201200437697568
1.413955143690186
1.720494965664503
1.008841652966408
0.3598924458926879
0.6781192244308375
0.6148618527476868
0.6519858941463724
0.6553510130929613
0.6898884808620241
0.6975758271138121
0.7331092607657557
0.7459398954607187
0.7833368787507901
0.7995778471404379
0.8414383701318043
0.8607160487811765
0.9156528646002932
0.9955006083355844
1.179949755507872
1.305523933718381
1.415439038203183
1.458306625031498
1.487571584190409
1.510422387194411
1.530885434614391
1.547923763934261
1.562261640629922
1.576725285467764
1.587282216782742
1.600705087326384
1.718666284257723
1.401759140571274
1.034471844823962
0.8916049510966323
0.9175057388159154
1.002851673217275
1.038634848314437
1.033554770352245
0.9827968669899927
0.9618021390661716
0.985691962819053
1.034609870216779
1.055263471718139
1.051633640545907
1.03586321569088
1.046756859524365
1.047770400733988
1.060526645407701
1.066933531644345
1.07754380708931
1.084940532897492
1.097294593779382
1.112176171877042
1.130946753821568
1.194750232019597
1.38675573780825
1.694905676384604
1.022136397107001
0.4135672698693534
0.7235007080790837
0.6003820423143712
0.6359858138897219
0.6401693408614184
0.6735719582727551
0.6779486020686882
0.7149767503135875
0.7237651767688524
0.7617094694631174
0.7753883894379696
0.8145792194747579
0.8337670786584325
0.8759845634844019
0.9087952178588252
1.007745902969212
1.175250753051025
1.310282338989953
1.412655315964805
1.46004898822397
1.486490529843051
1.509401488943982
1.528062572111464
1.544002872614963
1.556576321518901
1.570179901927353
1.581320698996442
1.594421025827387
1.698478311970657
1.36215150832105
1.281502789656915
1.11789322000715
0.8742051835591806
0.9331730227601774
1.008728134534507
1.055137885040535
1.032483513380867
1.002765003415238
0.9674910866102077
0.9986446931518035
1.04039557762854
1.072543701331777
1.055681581851575
1.056553064572263
1.055390450414041
1.064135728818806
1.072408567789235
1.082595102340188
1.08664897466613
1.097337511433462
1.102602222182549
1.115555444522454
1.131278230145182
1.18854986632887
1.362231168614383
1.666964490648086
1.022656236626143
0.4618229201112651
0.7695859982865295
0.5867067098485177
0.6215972743664214
0.6248662393290468
0.6573870319227119
0.6615342225121598
0.6969519588067469
0.7046852207775804
0.7402429869775088
0.7537135716149093
0.7903685535814643
0.8077250387759857
0.8478019201059427
0.8696343204654502
0.9211365983753992
1.002705567921729
1.181691003253136
1.307961475834185
1.414806763980039
1.458647411905309
1.48599187546683
1.507022380154453
1.52451369286281
1.538563497034162
1.550175035447529
1.561675183462547
1.574084827990396
1.586991037489935
1.680000157575865
1.324784606706179
1.389914599905841
1.361554275326184
1.058600714977211
0.9030078660470081
0.9382452647226222
1.016462691549388
1.057944013600134
1.049810783582928
1.005285480390063
0.9824186907747011
1.007581922574143
1.055479256247201
1.079406408886568
1.073657949984892
1.065903141145592
1.071330815124262
1.07599651794071
1.08781134347525
1.091696808771989
1.098898871704294
1.103208788230891
1.107364632885144
1.117292445279571
1.131188946573593
1.182623398967582
1.340898677571309
1.631183570803889
1.031118106332542
0.505032919171594
0.8350766667879641
0.5740297652213689
0.6076613300269179
0.6100519147841188
0.6413956454568965
0.6464715857529495
0.6799996866356056
0.6857634477234108
0.722292509138741
0.7319031196625374
0.7688368908526843
0.7838598296758174
0.8213471338342095
0.8423000422078573
0.8817398700043517
0.9168852961763727
1.011676441871906
1.17809736384175
1.310371960170253
1.41176433303684
1.458166396433542
1.483982518185823
1.504032323260884
1.5195087614156
1.532477569878295
1.542397040689526
1.552370650361339
1.565259077865716
1.578195118617923
1.662541575177763
1.354009774158135
1.361792904081935
1.449117503878265
1.321062339856863
1.126791496125004
0.8994940761071004
0.9498782026105819
1.0297113438078
1.0699909798862
1.056030949772821
1.022965367408075
0.9906290358220053
1.022220288400109
1.06503244220075
1.094546311394097
1.084582764202788
1.081300726797059
1.08304428099376
1.091300600171061
1.096616844025308
1.104022547540087
1.10461461868091
1.108557873811034
1.110715101451871
1.118706039957976
1.130482922882208
1.177487249247375
1.321825435453277
1.581934616923055
1.057837723516291
0.5311044422867561
0.722354049268362
1.124281914323587
0.5619867128593622
0.5945911532149797
0.5962159506255407
0.6271831256764209
0.6307257723849541
0.6637340178072163
0.6692183584141973
0.7037579102070023
0.7130112386285614
0.7473873846618511
0.7620926984233344
0.7973158892769513
0.8163884029103156
0.8539281265654518
0.8777933645527535
0.9260749797574017
1.008599113651773
1.181867033650579
1.308351331944767
1.411116443830345
1.455918823236162
1.481402399840977
1.499597128796386
1.513979204062271
1.52488204012301
1.533556859375192
1.541970544883345
1.555335688166155
1.569348437769047
1.652867036263675
1.53491820522181
1.30525504343641
1.409233721490794
1.419605449867645
1.370609891617156
1.096500143167631
0.9211982071512731
0.9619762463277639
1.030244588811676
1.080880161828801
1.065870540058969
1.031918077293412
1.005146573244756
1.033809283848109
1.078365240985366
1.106771216656552
1.098896505607613
1.092747530960908
1.098253971269584
1.099970431432069
1.108570171503706
1.109914176949048
1.110020945375665
1.112344080972882
1.113668914219379
1.119530308859316
1.129946798229265
1.172745044015026
1.307049061117886
1.52768394775413
1.099774246267975
0.7127308444461212
0.710891761757931
1.093334556903817
0.5500820291396488
0.5820137678321399
0.5836189166682016
0.6132049088808977
0.6159106271071992
0.6478131313444424
0.653543972220835
0.6868034617545218
0.6942608910901367
0.7293247247781485
0.7403980090032199
0.7758770239227845
0.7923690017937768
0.827751936471808
0.8504648166386154
0.8870626123035171
0.923865553504166
1.014523209660328
1.178953182598878
1.308495587068372
1.408031188714631
1.453178689285582
1.477280148673391
1.49461447733139
1.506969563671847
1.516380881169076
1.523442321935744
1.531329244256798
1.544793717842285
1.554223259123389
1.61348962192264
1.555970531954344
1.259429425263303
1.340809197068871
1.381032658519254
1.455124630584186
1.347352938478438
1.141623988353022
0.9265057056568813
0.9665008666266111
1.049668098872595
1.085653153987676
1.080809606611085
1.040843782938093
1.018297569239803
1.04505575846481
1.091653248774276
1.11953970614578
1.109860302858675
1.107725430882394
1.106832575923247
1.111812993078495
1.114149345747613
1.115470503173554
1.113849135885913
1.115305837261642
1.116036956651577
1.120830718146594
1.12909748262648
1.169482984431811
1.293874190551555
1.529198010825961
1.127479275667884
1.216577500608624
0.6526099016361151
0.6460081107357369
0.9338910165089094
1.284931047409276
1.076044332784525
0.5389805781180644
0.5702563997557826
0.5711748665979454
0.5999299947917522
0.6025980004884953
0.6336337998136579
0.6376645738629536
0.6706557224283362
0.6776526652016541
0.7104274816080467
0.721587064240919
0.7543643446043342
0.7707027170072327
0.803880959923811
0.8244560118287888
0.8595081062938259
0.8850695891515292
0.9301593711990233
1.0125995110711
1.180097949426919
1.30568482444338
1.404840120764358
1.448891366949244
1.472483818876608
1.488031102633337
1.498904975810701
1.506389775166486
1.512969480463703
1.519753148416881
1.527196346466628
1.538925702905106
1.5835368258261
1.577772168010908
1.230956816834966
1.292787702363513
1.317941107692455
1.413797296683926
1.43541939589205
1.380072077371151
1.126301567348351
0.9384989969725519
0.9809561775341371
1.048400337252704
1.102913607695188
1.083944960592432
1.058715880473023
1.028187883125728
1.058618887792111
1.103764833144196
1.129118804730034
1.124601624494653
1.11607224039927
1.118472657213089
1.117384599177523
1.119395522550138
1.119339079410945
1.117866859160682
1.117703576314793
1.118755470751895
1.1217406111607
1.129294188528731
1.166888943449163
1.296192400963433
1.526967027717017
1.350969460180666
1.114993130233199
1.167709871791536
0.8208478595890769
0.6338493016202162
0.946348612119199
1.258584883012136
1.097513168658474
0.5302661123453605
0.557598616042688
0.5593651383666756
0.5868933650895205
0.5894560005131284
0.6194800477351644
0.623378565987984
0.6545796161120079
0.6618036546988642
0.6936008102635017
0.7029377020314166
0.7361815159405483
0.7489737305043901
0.7824669942993561
0.8004791057371859
0.8334804620192
0.8577013113330719
0.8915180436483121
0.9292341340838401
1.016225149788846
1.176820438643991
1.303314269558265
1.399896383960501
1.443641171274766
1.465944081051732
1.480156070655966
1.489098992387022
1.495983224031016
1.501179004591627
1.503771292299517
1.529490923276508
1.50595746705975
1.535745272917356
1.585616973726681
1.57949071293459
1.205954484124928
1.263675159569116
1.271326487199111
1.347489670198124
1.389092808792067
1.463899876678772
1.363767867475439
1.154637123229026
0.9464996601534796
0.9876860698891355
1.066411039385873
1.106475993508537
1.100498626188831
1.064371044929933
1.041692506912368
1.070812604867741
1.112461179807322
1.143118870299258
1.132509564786505
1.127384740138306
1.124001119000983
1.122665203608765
1.123002946452122
1.122820009129076
1.121131281898346
1.120412156684786
1.120504447565586
1.123260449428117
1.129264806167487
1.16483039976449
1.244433954228775
1.466325537651229
1.329853405363647
1.0837850839123
1.135048575645951
1.285590171954852
0.7631740337922159
0.8114536223678394
0.6514063137572406
1.071614005876332
1.443411287002204
1.131788349361911
0.5197620909242304
0.5449358469193446
0.5485518287815367
0.5746608238874641
0.5766983847112931
0.6063009441320729
0.6093443534216306
0.6402502166868373
0.6457412256328038
0.6774814103485595
0.6861892018948061
0.7170545067201751
0.7304534848656936
0.7608726350573085
0.7790063776606906
0.8096187637517738
0.8317239282548102
0.8640605366877451
0.8907988229060273
0.9332844950869615
1.014731556002941
1.175624866664484
1.298714168788253
1.39295510697199
1.436368933329924
1.457998003340132
1.470318779547118
1.47877410672984
1.48366773866342
1.484775193573725
1.48715753349428
1.513383110813198
1.49300870705827
1.525053241349016
1.570110964029431
1.578157045039922
1.180270698808098
1.234676165493503
1.24356076621691
1.299861835887566
1.326531052434158
1.422994011843773
1.448949846765653
1.389889295078099
1.144022398914999
0.9578912880098911
0.996572581627879
1.072756224329148
1.120128379088843
1.109145233719345
1.07581934898345
1.054219456234604
1.078335632023041
1.1263338332696
1.149957489572711
1.143169785248567
1.13279883379284
1.129285203497696
1.126340528583037
1.126355878391816
1.125545882770728
1.124632178645474
1.123200006146429
1.123827398283633
1.124496177754949
1.133348836581844
1.177816061748307
1.148556098552992
1.26023286777912
1.329811679972317
1.470525952125564
1.072250191357853
1.071769453865461
1.304269598029248
0.8411863307464325
0.881551701346823
0.6753868554591012
1.09180404060847
1.269833570841927
1.126176625686843
0.5052549405972486
0.5337812924416411
0.5387959378879076
0.5619892232093612
0.5652009005803533
0.5931433988153276
0.5966337886007134
0.6260162434605314
0.6313510201543857
0.6613131035433791
0.6704613957786763
0.7002870846085242
0.7115049250805567
0.7425289783196803
0.75733569045989
0.7881460058955307
0.8078286775500514
0.8381015943465631
0.8634004356969026
0.89500385038129
0.9327806532184948
1.016746389304656
1.171763455221236
1.294363614611989
1.383599929057348
1.427729764107827
1.447775244341196
1.459701984638327
1.465197336674362
1.466335038561016
1.468262564906988
1.479727566526952
1.516103778688942
1.495870513348776
1.480622604731852
1.524027965734211
1.575699680027007
1.528336550259235
1.579250128227562
1.153093279197043
1.2050085817239
1.219863202251006
1.270810416322194
1.279250084753346
1.357087448871887
1.402176718582477
1.472723122551236
1.379385789993094
1.167399940669056
0.9620344510830551
1.009329100080702
1.080220310281817
1.129972489560376
1.116611354867778
1.089287644880994
1.061258471084733
1.092392327509262
1.132812927751343
1.159023664493968
1.148422843865155
1.138021913666419
1.133020475380481
1.129770315629142
1.128966935022305
1.128552229813652
1.127457467758534
1.127459765454713
1.125578577988997
1.130188742563085
1.132558602947466
1.162522719389043
1.148105651139274
1.247918506298887
1.286913376369992
1.433209834295831
1.08252696183192
1.172424846984726
1.388028608565257
1.042143492679045
0.7412556752154569
0.7826863044245793
1.052830937916723
1.108228898247766
1.390741517563131
0.4949487532904515
0.5229538006793055
0.5265349085981892
0.5497030697702422
0.5540383495266489
0.5806240285644022
0.583889677219137
0.6126193327652919
0.6173251144611012
0.6469518690306757
0.6541861068665613
0.6841355622890982
0.6949294176474299
0.7232933287503374
0.73886969778879
0.7664592852236018
0.7863579472826225
0.8142481401900639
0.8375391687571661
0.8675600859240639
0.8947335712024196
0.9355706803992022
1.015339257620726
1.16832004479609
1.288247134992072
1.374526344822568
1.416382358084844
1.43619285825823
1.445119358491994
1.446182646845957
1.465733860808691
1.448197878048877
1.461959330659182
1.463987521224075
1.506586454307536
1.488630776958722
1.473050864116275
1.512030470014009
1.557573232005802
1.516599204597584
1.580991151010145
1.126114679586035
1.175427274762679
1.192773391643146
1.241697071915296
1.25159026640269
1.309846778231051
1.337544430696259
1.432359784621731
1.46336343952181
1.401388071077853
1.16021998658772
0.9780104582302874
1.011564930092526
1.093592561858621
1.135358696882258
1.13087398754834
1.094326677709746
1.07579435734679
1.098526229073609
1.141481833281888
1.16356328444985
1.153483899722718
1.141734219348085
1.13655932161991
1.132497101669999
1.131890464582432
1.131105601843594
1.131532444177197
1.130135123667617
1.132805255403656
1.131373213297713
1.132902329565282
1.133173795317183
1.160307027391601
1.139559067813271
1.198234319319661
1.281297096946667
1.307684793703588
1.096974441758187
1.114602842495016
1.389051188107084
1.065406647721036
0.7500745903358924
0.8076544515730293
1.088548939227509
1.13091982583825
1.4276204283784
0.4842888523231486
0.5121095612204447
0.5146148485189872
0.5382933563395922
0.5436102198160278
0.5678056380105144
0.5720750707208875
0.5993676621107638
0.6043637593618109
0.6326283752032513
0.6397641829758913
0.6679350742183454
0.6788644829222175
0.706568740475352
0.7198466891074211
0.7480285319070216
0.7647085014725716
0.7927545136572511
0.813739756711075
0.8416625616056053
0.8673417575058213
0.8977958832639175
0.9353854013109127
1.015853152417844
1.16270976400699
1.281097521674274
1.363363015546152
1.403260178732941
1.419023384821154
1.428818602091172
1.430292864255422
1.45396331744499
1.443468726849995
1.45431530671233
1.463968470169251
1.49258225323003
1.475902493795689
1.471732714327935
1.505187213524444
1.52156707124606
1.570419913254943
1.505477297526604
1.554769480654137
1.095281696597908
1.148764804373939
1.16512856172098
1.211774854120898
1.227978323680078
1.280377516990227
1.290978450558978
1.366863359608426
1.415718955767136
1.482669624937662
1.395820985726242
1.180860516106859
0.9791162929239172
1.028408922608914
1.095050371203138
1.149787907888346
1.13587659782557
1.108557302788342
1.082184253580809
1.106876924656858
1.145326906212602
1.16777292904683
1.157054477565185
1.145283934640991
1.139415487567468
1.135597676974242
1.134406889787897
1.134919963666108
1.134039363018706
1.13746080812507
1.137114163284496
1.13256776787189
1.133483890594789
1.133324079366103
1.145381707010054
1.137824533272377
1.190317287466161
1.227295064996127
1.261660088767788
1.101212001150392
1.154215183716647
1.331332604774719
1.392116005481484
1.05983237126858
0.8862568085938025
0.7653000253691608
1.011813470851695
1.118475771066386
1.123279990241045
1.227511144115963
0.4736913340671206
0.5018956531211142
0.5042210642785919
0.5278435393770791
0.5315157684384839