/*--------------------------------*- C++ -*----------------------------------*\
| =========                 |                                                 |
| \\      /  F ield         | OpenFOAM: The Open Source CFD Toolbox           |
|  \\    /   O peration     | Version:  v1912                                 |
|   \\  /    A nd           | Website:  www.openfoam.com                      |
|    \\/     M anipulation  |                                                 |
\*---------------------------------------------------------------------------*/
FoamFile
{
    version     2.0;
    format      ascii;
    class       volScalarField;
    location    "5000";
    object      nut;
}
// * * * * * * * * * * * * * * * * * * * * * * * * * * * * * * * * * * * * * //

dimensions      [0 2 -1 0 0 0 0];


internalField   nonuniform List<scalar> 
18230
(
3.331137697863035e-08
2.385082476685273e-09
1.727962547992141e-07
2.639653552591275e-06
3.602832329356854e-10
1.53519183457453e-07
1.008874451190211e-08
3.774849936408539e-06
5.79311871230423e-06
9.234161577346085e-10
1.664551135623126e-07
4.690166203712255e-07
8.009171319127898e-10
2.791166888163796e-07
5.853927775950767e-06
6.946164175463052e-06
1.340347069937518e-09
8.281328816599229e-07
2.437795001714365e-07
6.89402839901254e-07
1.528887447863567e-09
2.727726783587545e-07
6.307974029632407e-07
9.186116156297281e-06
9.571672322796047e-06
1.230350663638604e-09
6.407773312686797e-07
9.409614705444506e-07
2.971052389314986e-07
9.326565295034562e-07
3.343988793755616e-09
1.344452031745352e-06
3.897781235729591e-07
1.064877066561207e-06
1.109849228032552e-05
1.057650589986434e-05
1.611490035258699e-09
7.940608166958843e-07
1.565096878273286e-06
1.405976112939774e-06
3.074044031494089e-07
1.131862836276574e-06
5.834720469550695e-09
1.708809581614377e-06
2.014754900114627e-06
5.328702708242872e-07
1.422882697838871e-06
9.125523608610752e-06
1.238531955585868e-05
1.604470747909417e-09
9.039708059870833e-07
1.534200953063966e-06
1.918064184325774e-06
1.104926353105301e-06
3.53406647186406e-07
1.344699592543574e-06
6.651907598797978e-09
1.770526060510143e-06
5.186503775303693e-06
2.844041991755678e-06
6.76232136750588e-07
1.872032285197716e-06
1.043672032731478e-05
1.254582619976322e-05
1.315368552120721e-09
9.128252315684789e-07
1.591870584733668e-06
1.500667780646856e-06
3.646280040568409e-06
1.292724106338973e-06
3.938975478256715e-07
1.601839153324136e-06
7.85732811910963e-09
2.745904909405719e-06
6.111329335698423e-06
6.82899262259906e-06
2.799625041290451e-06
8.537003717027308e-07
2.338812180622925e-06
1.276989067903934e-05
1.281201890356434e-05
1.308763920442524e-09
8.595747584055866e-07
1.578388252210804e-06
1.625021052793431e-06
3.726050237089423e-06
5.605749696231342e-06
1.248873534076219e-06
4.617014096442195e-07
1.900857818292851e-06
6.851883866037985e-09
3.075615229783994e-06
6.130077590908861e-06
9.76060203076319e-06
8.064946721551547e-06
3.350548390727553e-06
1.047460850516885e-06
2.909269579454609e-06
1.421296842643312e-05
1.031097378337775e-05
1.23933469879426e-09
8.082533458346915e-07
1.597047638403041e-06
1.57598384438917e-06
3.996636879653609e-06
3.838947467506711e-06
8.253908926972533e-06
1.486435415367726e-06
5.471803465935496e-07
2.224244035369661e-06
6.538593459175556e-09
2.976762169244121e-06
6.252336559641139e-06
1.000977062997771e-05
1.404259726774645e-05
9.241369446624806e-06
3.710681239177706e-06
1.288733631393063e-06
3.503900971824475e-06
1.204651840113652e-05
1.048269065149657e-05
1.103019406421418e-09
7.743213129933989e-07
1.616833373806895e-06
1.509372188060012e-06
4.127997553872031e-06
3.820311191657889e-06
8.30527513251927e-06
1.120170035143348e-05
1.639751676851099e-06
6.533804520284653e-07
2.60397285568214e-06
7.205593442882373e-09
2.844447563112938e-06
6.160298065156441e-06
1.004749849386025e-05
1.442928353811532e-05
1.899011310502622e-05
1.065834846753538e-05
4.886820246550994e-06
1.633370845638939e-06
4.176041186768977e-06
1.181075161416435e-05
1.404057700814877e-05
9.596688810438678e-10
7.087425866576719e-07
1.682488312996898e-06
1.74291193868859e-06
4.26391280920771e-06
4.004066946822792e-06
8.642631172508698e-06
9.803489400516292e-06
1.444998072434842e-05
1.951789290341061e-06
7.99785938144653e-07
3.036677445155621e-06
7.044495366403422e-09
2.939703824259672e-06
6.048136516849564e-06
9.968788560987387e-06
1.441552602750367e-05
1.941545161557065e-05
2.451130716148875e-05
1.242878038456614e-05
5.74677993355872e-06
2.095378811167357e-06
4.954607908232005e-06
1.405139642713514e-05
1.461874164074408e-05
9.991627362784279e-10
6.53641808787269e-07
1.779283384026639e-06
1.820088789512829e-06
4.506911267425446e-06
4.216800011697334e-06
8.82709128134128e-06
9.700579440820178e-06
1.400643200244594e-05
1.789135708886143e-05
2.157582136135453e-06
9.844288596011082e-07
3.562329623338936e-06
6.414049852724777e-09
2.968118496112667e-06
6.187302644198748e-06
9.840317175517483e-06
1.437735297100236e-05
1.944242737186614e-05
2.498628000337006e-05
3.045975716506556e-05
1.377021027602351e-05
6.629019221127121e-06
2.683603435718575e-06
5.907463928960378e-06
1.780410705192421e-05
1.298951446128602e-05
1.077917795543178e-09
9.418079158024996e-07
2.126518147397587e-06
1.981979653407816e-06
4.762963450331801e-06
4.56237740263045e-06
9.042315087530531e-06
9.806139670884674e-06
1.445273304523129e-05
1.735922300532076e-05
2.081156756225316e-05
2.585067021174902e-06
1.221491222700518e-06
4.203368263674663e-06
7.265542700396867e-09
2.83660980369554e-06
6.127632572756536e-06
9.96343164584559e-06
1.425093036050853e-05
1.94062719856534e-05
2.499834503022811e-05
3.110664012066166e-05
3.681863726155932e-05
1.571129749219241e-05
8.037541897992554e-06
3.44367269696177e-06
7.143009111922233e-06
1.751886386618084e-05
1.153763472304229e-05
1.519714144767183e-09
1.056441736193253e-06
2.701935358602898e-06
2.108269906968465e-06
5.087146801838597e-06
4.549055012833414e-06
9.32653376725395e-06
1.025525880604571e-05
1.46374142442456e-05
1.784616626956568e-05
2.117175722058189e-05
2.457892159827168e-05
3.056047652411809e-06
1.536248712393144e-06
4.99272513268439e-06
7.046148030677976e-09
3.06864228659031e-06
6.003824119365191e-06
9.845750732336346e-06
1.432478716508696e-05
1.92713510029562e-05
2.495556575528814e-05
3.098367898697464e-05
3.752328088050625e-05
4.351942144855669e-05
1.727155992859057e-05
9.537741372307707e-06
4.47653646439692e-06
8.80381748878589e-06
1.773533136290146e-05
1.076707285135323e-05
2.297358714530512e-09
1.430808948324148e-06
2.888287252921256e-06
4.36643107510751e-06
5.529331863955411e-06
4.773055268511823e-06
9.608393172383023e-06
9.880699549115025e-06
1.495849244521427e-05
1.805548490375589e-05
2.177506993949883e-05
2.592865451225473e-05
2.686396625963454e-05
3.690351763114735e-06
1.956390684140425e-06
5.969212414650399e-06
7.056608946276736e-09
3.076820931924047e-06
6.140432434869275e-06
9.67219208755065e-06
1.42077230234178e-05
1.924348371337846e-05
2.476193192364836e-05
3.088024447932172e-05
3.542850734561266e-05
4.428373705056698e-05
5.039170131008798e-05
1.975154540427262e-05
1.125099963926218e-05
6.029904936511279e-06
1.097200079167292e-05
1.810427093587269e-05
1.110188064758967e-05
2.254602683114976e-09
1.696194602126791e-06
3.165349246728406e-06
4.68642990746275e-06
6.1838129299003e-06
5.675399593437006e-06
9.899651129101571e-06
1.038051159343282e-05
1.523568526145909e-05
1.843364722315401e-05
2.202426063659286e-05
2.668360522103533e-05
3.181398902782668e-05
3.248446158163902e-05
4.452883898135534e-06
2.488452802149213e-06
7.178662056880856e-06
7.093318886369951e-09
3.011321809312122e-06
6.17006063395774e-06
9.797064788703011e-06
1.393575476919024e-05
1.91201327912758e-05
2.463634287464367e-05
3.065776583123331e-05
3.606530509087263e-05
4.1908012284224e-05
5.117552798004346e-05
5.737325517045975e-05
2.050532678874807e-05
1.305169227322432e-05
8.057176667483337e-06
1.357742904489965e-05
1.968317423542956e-05
1.192704146654299e-05
2.397542444184601e-09
1.571988522674099e-06
3.237295666944612e-06
5.041909031960048e-06
6.755947693723516e-06
6.266274079917489e-06
1.037248378236091e-05
1.08333118767287e-05
1.557328255273846e-05
1.877772655687481e-05
2.248844661785034e-05
2.703661506052097e-05
3.275733015185376e-05
3.943330426712888e-05
3.535421531985667e-05
5.404512984502388e-06
3.222622409987652e-06
8.637962290088077e-06
6.362921855975359e-09
3.160269131921799e-06
5.975603013933138e-06
9.719196897900126e-06
1.40103635727207e-05
1.876901627623509e-05
2.449646329577593e-05
2.934039655515911e-05
3.624142108733423e-05
3.965940197068751e-05
4.992195797658169e-05
5.073472509805735e-05
6.48217721313172e-05
2.345778033097402e-05
1.408281300465434e-05
1.025940548317827e-05
1.663848751005181e-05
2.208789869289952e-05
1.313352348329943e-05
2.604553089175642e-09
1.537851188989082e-06
3.071844175906284e-06
4.853809154321144e-06
7.146738398447475e-06
9.109518868527417e-06
1.117046456399215e-05
1.12918013909923e-05
1.589173877072292e-05
1.917721293238259e-05
2.294636994588661e-05
2.762287842206186e-05
3.32271257229683e-05
4.057547310928972e-05
4.918407172218267e-05
4.215642803059632e-05
6.610310108829056e-06
4.148934742929366e-06
1.074446910615156e-05
6.532577646894008e-09
2.929364761784092e-06
6.087162171772921e-06
9.441465535572904e-06
1.392764146973184e-05
1.81083851787061e-05
2.410157052080877e-05
2.979765343709388e-05
3.673683810888443e-05
3.774336786305381e-05
4.862878547695334e-05
4.845674765104034e-05
6.55592478120835e-05
6.524674285786771e-05
2.343647589124336e-05
1.468490072711065e-05
1.229324227858723e-05
2.049796744007669e-05
2.566629249933372e-05
1.477733059609947e-05
3.05815610976841e-09
1.614266754277889e-06
3.20502939791004e-06
4.114378948985021e-06
6.993070457580224e-06
9.482199470124425e-06
1.173926225826633e-05
1.356930952131922e-05
1.64409526691181e-05
1.959015604354075e-05
2.344278709908336e-05
2.819914574601422e-05
3.39493118809642e-05
4.120768094526419e-05
5.056260371970865e-05
6.190114338507878e-05
4.74126421248426e-05
8.084675339881336e-06
5.352143769580051e-06
1.382983766608698e-05
7.334722822788404e-09
2.96423091882377e-06
5.867074045248745e-06
9.619071392050541e-06
1.353366903996512e-05
1.836371165240744e-05
2.411274123086452e-05
2.76091332319862e-05
3.645832731698873e-05
3.557559950822681e-05
4.978852020635862e-05
4.664745405263505e-05
6.585957244177711e-05
5.80457996365763e-05
8.129281236921163e-05
2.488529319142979e-05
1.464630230152447e-05
1.463252432305442e-05
2.55238380448239e-05
2.942258405348987e-05
1.694794585064973e-05
3.739778333246495e-09
1.784236870281506e-06
3.367069549555519e-06
4.224299848132959e-06
7.040731704885105e-06
6.643513165752377e-06
1.221360362869381e-05
1.366217927699192e-05
1.745220221964046e-05
2.02996049886279e-05
2.401209524037283e-05
2.884726621647952e-05
3.47148877825744e-05
4.212897898061024e-05
5.143065206642705e-05
6.356189118313961e-05
7.794705326179605e-05
5.427531365565264e-05
1.004940561291317e-05
7.097191984008729e-06
1.81766464764905e-05
7.378679049581925e-09
3.146096569971055e-06
5.997135577390849e-06
9.361116323732546e-06
1.356714572838387e-05
1.723247569200131e-05
2.381577191487592e-05
2.739075179277886e-05
3.612220915881027e-05
3.562282762556284e-05
5.058106997657774e-05
4.497229877440399e-05
6.569676720496045e-05
5.74061371298353e-05
8.221644128822711e-05
8.396584414531924e-05
2.461575681488438e-05
1.426004712160173e-05
1.726238747289108e-05
3.133844977416416e-05
3.340495011573617e-05
1.970503374165575e-05
3.091398486013261e-09
2.407075780207438e-06
3.627454028432188e-06
5.050420924208099e-06
7.529606442211376e-06
6.127612454929908e-06
1.255877571766966e-05
1.176302944958201e-05
1.86815959938665e-05
1.980007830738118e-05
2.501186699801655e-05
2.964029201618083e-05
3.554394214578686e-05
4.313489702889645e-05
5.25983289221369e-05
6.474253329982117e-05
7.432803989475719e-05
8.647174310466188e-05
6.20840617011583e-05
1.265706409703449e-05
9.600464518121388e-06
2.461686796375496e-05
6.343330475198653e-09
2.953380133528523e-06
5.95478022059604e-06
9.429965405870908e-06
1.32770545521295e-05
1.697648402795997e-05
2.324135030135858e-05
2.576535120592785e-05
3.602547847869434e-05
3.412319929952062e-05
5.023150137173741e-05
4.399205892441172e-05
6.542516310225098e-05
5.32379092770724e-05
8.2376772729607e-05
7.710958945978366e-05
9.268293411031088e-05
2.374903837787508e-05
1.354568098376668e-05
1.947849786029905e-05
3.914569583118693e-05
3.776615901889928e-05
2.295349271218677e-05
3.709388466927234e-09
1.870729384109101e-06
4.024030473456958e-06
5.755763499142367e-06
7.839665276426566e-06
7.480553444887556e-06
1.285109793217916e-05
1.125027182960982e-05
1.987632383855429e-05
1.995479563597188e-05
2.697838342654677e-05
3.09445149708383e-05
3.656257112595291e-05
4.424619704795481e-05
5.386592831155093e-05
6.62599321064529e-05
7.703639249334806e-05
7.394297382474783e-05
8.914215199080447e-05
7.441015518681984e-05
1.618748801025507e-05
1.325100361553565e-05
2.24907061917302e-05
5.914123513025756e-09
2.338728735034403e-06
5.612696972005405e-06
9.067447601795981e-06
1.319556672577522e-05
1.711438155579904e-05
2.295304942478921e-05
2.442288548781938e-05
3.562466360433874e-05
3.434896503107685e-05
4.982324077369027e-05
4.436894183770684e-05
6.519016579680439e-05
5.195105340597267e-05
8.219885573934169e-05
7.265877336515647e-05
9.249807404509651e-05
9.230244873324801e-05
2.201225886419919e-05
1.278743604406173e-05
2.114253874628053e-05
4.785354958644352e-05
4.260748653628587e-05
2.690984534603934e-05
3.067046530923674e-09
2.312460611342948e-06
3.615020572351438e-06
5.950497435087328e-06
8.067859070694799e-06
8.230491267929907e-06
1.348915376471991e-05
1.109826370863424e-05
2.057828943156368e-05
1.838288280804783e-05
2.924469180802445e-05
3.352014822631581e-05
3.822377908483232e-05
4.554983769184033e-05
5.536071338281574e-05
6.789757485759619e-05
8.258458280673543e-05
7.735280371799282e-05
7.446116889053367e-05
8.663497308627516e-05
8.423678377768251e-05
2.077562430046572e-05
1.879317949348898e-05
1.782337412733223e-05
5.576632359567597e-09
2.310166625115126e-06
4.858744071985669e-06
7.545076431621386e-06
1.244525368001731e-05
1.717754845759503e-05
2.229443346152622e-05
2.467334739602695e-05
3.483359731745051e-05
3.406491440236252e-05
4.942079528263112e-05
4.285757062801221e-05
6.463867421214718e-05
5.044608785863303e-05
8.032846922470084e-05
6.963714146955247e-05
8.439423916091708e-05
0.0001002578697980359
8.735337545497558e-05
2.054063618124313e-05
1.183166154311261e-05
2.199448945917791e-05
5.777985525721634e-05
4.700939901144657e-05
3.164348481962465e-05
3.095820399173747e-09
1.626317284005334e-06
3.946109263835418e-06
5.464156132405873e-06
8.099966119551811e-06
8.711312155686768e-06
1.396330504904262e-05
1.122632071155248e-05
2.114846963480994e-05
1.709300485759345e-05
3.13906374668115e-05
3.432181798812176e-05
4.166033441987721e-05
4.7720571497013e-05
5.699714604798004e-05
6.985648859601165e-05
8.573952934402274e-05
8.306097566237489e-05
7.999253631336803e-05
7.550061911046295e-05
8.392224207302225e-05
9.106438435284592e-05
2.67315033854585e-05
2.746756692388572e-05
1.54554093068984e-05
5.283340881857227e-09
2.257610835852742e-06
4.801466152634103e-06
6.174970396676324e-06
1.128761957932389e-05
1.554289696589577e-05
2.159507745875958e-05
2.390086123961504e-05
3.379238571399498e-05
3.255300880292718e-05
4.875878541275637e-05
4.337431267753422e-05
6.411086251475498e-05
5.092428833819857e-05
7.725254729465195e-05
6.910471023431662e-05
8.025174216866219e-05
9.163891037888027e-05
0.00011905639618491
8.164675815854321e-05
1.914768750912355e-05
1.114955926346225e-05
2.259833479395032e-05
6.827279372431186e-05
5.17223158648242e-05
3.717869122583977e-05
3.261100072525205e-09
1.564450263845997e-06
3.159387631758442e-06
4.722508963432504e-06
7.782507636456706e-06
8.251702326875986e-06
1.4061391493349e-05
1.233472121753091e-05
2.190390813295392e-05
1.721826044147099e-05
3.268949665851908e-05
2.874400112397966e-05
4.586156931340886e-05
5.2193495460915e-05
5.98283600515391e-05
7.204409404939683e-05
8.817347608995817e-05
9.367113870838278e-05
8.637785191572243e-05
8.166779377504851e-05
7.687746890906102e-05
8.21440346744888e-05
9.53134553613379e-05
3.401569568329842e-05
4.015087502600179e-05
1.516287647334193e-05
4.764114585802625e-09
2.311136301330791e-06
4.640929487128756e-06
6.175025042897837e-06
1.01892498077742e-05
1.202889611757438e-05
1.99380863337575e-05
2.362612969277679e-05
3.240318502438851e-05
3.237146396642158e-05
4.750334589124743e-05
4.179116324885083e-05
6.363653475352689e-05
5.012352584120003e-05
7.775049881644155e-05
6.812835487113879e-05
7.815409349889066e-05
8.636175113606023e-05
0.0001076032192161692
0.0001327739179685108
7.23297494642796e-05
1.939406453975192e-05
1.104982069140484e-05
2.36637602973063e-05
8.20921850341026e-05
5.704056120615047e-05
4.357918634396693e-05
3.52274520302982e-09
1.583305297350905e-06
3.210523731582437e-06
4.431654400749126e-06
7.814845059375534e-06
7.84630179835131e-06
1.385259825690147e-05
1.306143867177291e-05
2.231728311541668e-05
1.840603720582947e-05
3.338465916988549e-05
2.794679270901924e-05
4.963185308842229e-05
5.760804124277524e-05
6.56578415031958e-05
7.56481299037185e-05
9.103282937010999e-05
0.0001113670460291284
9.895278151824535e-05
8.860611349302712e-05
8.402470917738828e-05
7.939416130557977e-05
8.291026894705433e-05
9.994458291508673e-05
4.244753023102578e-05
5.502011140522091e-05
1.627227438553542e-05
4.650974686506618e-09
2.03556587884383e-06
4.265202749231409e-06
5.924547185465424e-06
9.882502064507462e-06
1.023225936061826e-05
1.814425508198747e-05
2.104248511815846e-05
2.941015898037529e-05
3.12497107481237e-05
4.558129567943237e-05
4.124891599386558e-05
6.285021524429726e-05
5.008469642152343e-05
7.641227830102402e-05
6.892997294164957e-05
7.707570451483295e-05
8.421255823829576e-05
9.970591717381283e-05
0.0001194218606124434
0.0001932536117375888
7.169473227750198e-05
2.11204949782142e-05
1.157038423222581e-05
2.684507838436395e-05
0.0001001523087778287
6.339723060712057e-05
5.03162103085816e-05
3.602418156664477e-09
1.661855145792591e-06
3.238274815574895e-06
4.356719259620534e-06
7.246863561934379e-06
7.526033981337237e-06
1.352779087569687e-05
1.237879010016674e-05
2.219371257800716e-05
1.966356600652658e-05
3.409707933693357e-05
2.78731153724051e-05
5.152779121152306e-05
4.809492413490624e-05
7.288960727319851e-05
8.321186493632563e-05
9.55530929173933e-05
0.0001150281710000508
0.0001186879134713936
0.0001018824158395837
9.170938485703472e-05
8.733838979590192e-05
8.425659068659969e-05
8.559858015902116e-05
0.0001024728546735523
5.181937316971309e-05
6.666921476552858e-05
1.870874935696391e-05
4.465535376881716e-09
1.829956376714003e-06
3.426335847069157e-06
4.825224584882021e-06
9.311593303667578e-06
9.86104988446428e-06
1.666183335572636e-05
1.641307953192515e-05
2.662991632929201e-05
3.08519638331965e-05
4.279090911021572e-05
4.160714482167127e-05
6.112943120039718e-05
4.992052280657741e-05
7.400441551454206e-05
6.868787775333977e-05
7.729817345804941e-05
8.277359013231469e-05
9.748041823593885e-05
0.0001079180640136434
0.0001954556583369957
0.0002313482720031502
7.599879483489049e-05
2.454791961801614e-05
1.308393639068327e-05
3.209932833193274e-05
0.0001239548312548367
6.983907182256612e-05
5.852306215904191e-05
3.685912403094814e-09
1.695616606645409e-06
3.285611296446866e-06
4.365730480595635e-06
7.386114558743532e-06
7.007863510636889e-06
1.329878991027161e-05
1.198959836501073e-05
2.201147487028211e-05
1.937446088825951e-05
3.431356407183126e-05
2.978892513333382e-05
5.226704636193384e-05
4.622380951075253e-05
7.955501409642474e-05
9.259740354347399e-05
0.0001054376026213972
0.0001035782325988222
0.000123288524958477
0.000119656977304992
0.0001053530573744954
9.579681140895103e-05
9.320552902632568e-05
9.173603566087034e-05
9.070723801331111e-05
0.0001059901221610794
6.149256132725276e-05
7.024845657022196e-05
2.280043863151842e-05
1.792370177721022e-09
1.567485235044437e-06
3.01397721159536e-06
3.381164564660753e-06
8.218151266311512e-06
9.594263905144907e-06
1.603811283943463e-05
1.422194073466648e-05
2.590641804263282e-05
2.731762505335205e-05
3.662438202364797e-05
4.082076014020039e-05
5.817281702997796e-05
5.059121593118989e-05
7.148092621736246e-05
6.870086465189689e-05
7.645410266130873e-05
8.363541900562593e-05
9.541513366406793e-05
0.0001066861586153648
0.0001754142834217271
0.0002570551048562554
0.0002716149108311359
8.681578293346677e-05
2.98057921471207e-05
1.546246542307985e-05
3.910359385409838e-05
0.0001538159788483829
8.021128936205516e-05
6.23605692222228e-05
3.746677707195166e-09
1.702111722119932e-06
3.245994137514848e-06
4.506509785133821e-06
7.521222894986363e-06
7.128370082707781e-06
1.309502575877353e-05
1.163909301147047e-05
2.176320869754768e-05
1.959656489769372e-05
3.436188768975657e-05
2.995472035665607e-05
5.293115345277169e-05
4.698254295071762e-05
8.199844306848137e-05
8.58729764132603e-05
0.0001178625460160699
0.000119746099889021
9.993307225099054e-05
0.0001231107131544229
0.0001200697044239098
0.0001091640170725035
0.0001026432952216704
0.0001014494097565433
0.0001008316981255929
9.993823703512027e-05
0.000112773242625179
7.339417523375891e-05
7.118269932918546e-05
2.337667825872671e-05
1.612061274150094e-09
9.914279392052915e-07
3.042189166999197e-06
2.198114805907733e-06
6.269429862323425e-06
8.190227902114262e-06
1.512494404799008e-05
1.411155341345332e-05
2.466276809611888e-05
2.155589382068471e-05
3.509261576952553e-05
3.753971814668057e-05
5.297096345814844e-05
5.144397170748989e-05
6.643627684221591e-05
6.887604418770708e-05
7.538566617335919e-05
8.313533027217008e-05
9.764498439691929e-05
0.000103500629294273
0.0001710238619967122
0.0002263697253333042
0.0003335662791555515
0.0003314060648059686
0.0001040869462689665
3.724747230317683e-05
1.906919708844897e-05
4.609357164648217e-05
0.0001885571473186211
7.284998078372747e-05
6.41003834937187e-05
0.0001289602610128309
3.812601153985074e-09
1.685864430567212e-06
3.276054737768275e-06
4.393578027522779e-06
7.563213349691898e-06
7.553274897952491e-06
1.332306631455337e-05
1.140011116237689e-05
2.153382918929708e-05
1.942529357420045e-05
3.42062431120038e-05
3.063823038306508e-05
5.322486623279156e-05
4.805396574217141e-05
8.289816152102739e-05
8.050157108913413e-05
0.0001295916636784373
0.0001301628516956168
0.000123785702088681
0.0001099765354875575
0.0001193065874628416
0.0001207215053751659
0.0001153866132509233
0.0001118582269590099
0.0001107305413366134
0.0001123112075580972
0.0001117604953803627
0.0001264646201857376
8.282133394731948e-05
8.028694842686921e-05
2.853650598280596e-05
1.729251470916919e-09
1.156557523709014e-06
2.486850301865834e-06
2.225472414800201e-06
5.11724002162204e-06
5.970047968348321e-06
1.365968432579991e-05
1.678504789768833e-05
2.360308517545708e-05
2.135306674399869e-05
3.647995667939055e-05
3.291519507465235e-05
4.941050000189169e-05
5.094762979556672e-05
6.24815174602412e-05
6.949747767380329e-05
7.458732413283195e-05
8.186089124430089e-05
9.756716957475541e-05
0.0001070355666729551
0.0001622484275573129
0.0002119670773598123
0.0003342538837142771
0.0004221042415569214
0.0004353699351004025
0.0001304516095075129
4.767341427110154e-05
2.445719501735364e-05
6.726458594854943e-05
0.0002098564468073592
0.0001435495763943281
6.212147527401606e-05
0.0001860501503961147
3.77096446202416e-09
1.714405813474356e-06
3.34244673713545e-06
4.315735528871431e-06
7.546193598908875e-06
7.723364115507878e-06
1.343970391938674e-05
1.15672475444993e-05
2.161023374263193e-05
1.891401913950718e-05
3.414651346382466e-05
3.032795074591264e-05
5.339526314984236e-05
4.917026717578609e-05
8.374505595376707e-05
7.949488054169121e-05
0.0001337462848489142
0.0001487226371753407
0.0001304311642789983
0.0001242531575757002
0.000105389176952556
0.000119086743303295
0.0001240019256696869
0.0001230584080725112
0.0001212337375007598
0.0001225392246242146
0.0001267709094252868
0.0001287056688225827
0.0001304689282929109
8.448309542413411e-05
5.524170513091155e-05
2.968711121191359e-05
1.96056144988627e-09
1.470048008274918e-06
2.911741671835482e-06
2.536069178159144e-06
5.68626857951052e-06
4.107866404139833e-06
1.145139826226107e-05
1.624348336234774e-05
1.872420262608845e-05
2.321685482792622e-05
3.195294218072485e-05
3.12035927555197e-05
4.395558851648305e-05
5.140111377323122e-05
5.79204981129529e-05
7.287166560493522e-05
7.292154693383243e-05
8.108538672185247e-05
9.672066227458142e-05
0.0001066983917379961
0.0001732601443636354
0.0002021316344242293
0.0002740668118936185
0.000422690397060199
0.0005214098608921619
0.0006219854902701401
0.0001693413970739651
6.136191765050438e-05
3.317618470782725e-05
2.731168456561072e-05
0.000212984872822301
4.160997161449805e-05
0.0001354786244960357
8.309105703343147e-05
9.175296965205271e-05
2.535929587748012e-05
0.0001856883612724212
3.783790711757873e-09
1.715146941600549e-06
3.343970488004545e-06
4.706842837008883e-06
7.696964487127321e-06
7.446851273743079e-06
1.355715859970476e-05
1.174947552718312e-05
2.192542834052009e-05
1.876070708483619e-05
3.409452421009251e-05
3.032049389457132e-05
5.343595890672286e-05
4.915728721416822e-05
8.430846773912924e-05
8.120640726736669e-05
0.0001351970399148425
0.0001489195550349243
0.0001941070773228661
0.0001359401773339476
0.0001206238363164285
0.0001091286436617522
0.0001194207699973516
0.0001286043725289244
0.0001300228975061009
0.0001316290121554671
0.000136643529039983
0.0001456377460539536
0.0001370679748478428
0.0001478669561468443
0.000193815595540768
9.217008744546608e-05
0.0002503292868723016
2.166896033651276e-09
1.645298269501862e-06
3.163955803263826e-06
3.746550298838347e-06
5.759461503124136e-06
4.986959254164139e-06
1.024918295788435e-05
1.230975569591207e-05
1.65332025841116e-05
2.676865921359865e-05
2.624144369124829e-05
3.881020530987617e-05
3.722071709338361e-05
4.921740515373639e-05
5.334171955660183e-05
7.359046797970842e-05
7.453009096070774e-05
7.946111406195674e-05
9.70497242974757e-05
0.0001059543372853334
0.0001715432988810954
0.0002205862523731201
0.0002776726971023967
0.0003286491135783104
0.0005216520075912485
0.0006272372469259433
0.0007306106132425807
0.0002207777634769182
7.943863581566476e-05
6.707969585232358e-05
2.301953417350115e-05
2.566746573293263e-05
0.0002359273018610444
8.711281021767084e-05
0.0001921137309909978
7.361969233157574e-05
0.000106447984783981
3.138676413370216e-05
0.0003307791803573297
4.493111104522128e-09
1.706874865695978e-06
3.373706044483111e-06
4.760150029911909e-06
7.737999119239915e-06
7.999491878116501e-06
1.361363701599307e-05
1.198151601011078e-05
2.206752063816512e-05
1.918996357978332e-05
3.44587653437264e-05
2.947529918788012e-05
5.369445433574763e-05
4.847053491238528e-05
8.481421633515139e-05
8.184826790786421e-05
0.0001365984199479766
0.0001464598434152213
0.0002216421540480832
0.0001979849803365477
0.0001305077266468754
0.0001226369086241246
0.0001078849186195291
0.0001207110572474145
0.0001326884449447146
0.0001377236359183961
0.0001448988986723147
0.0001550316292269239
0.0001516971893273339
0.0001603253296347214
0.0002035795818686902
0.0001508321253494002
0.0001010163709925328
0.0007140829727572455
4.882034365115481e-05
2.215907751119636e-09
1.708975428668496e-06
3.259301059521684e-06
3.827688543408876e-06
6.210393065695455e-06
5.002153835087102e-06
1.078910416976424e-05
9.279694670466313e-06
1.60149585603634e-05
2.65698706327797e-05
2.159026783842182e-05
3.908377416635802e-05
3.228540556116921e-05
5.707554466084031e-05
4.823473644853396e-05
7.208690681449043e-05
7.394492461591242e-05
8.101820980848984e-05
9.833271654149353e-05
0.0001066679838884834
0.0001681610149356878
0.0002165383565706374
0.0003103510025937529
0.0003640907229850558
0.0004062290938758344
0.0005940842580744551
0.0007368264188111012
0.0008389131535938194
0.0002951189968817945
0.0002192111475246371
4.769516646908076e-05
3.531221601585743e-05
6.628787469389876e-05
0.0002536932852837917
0.0002800698079039625
3.87706460173674e-05
0.0001738520220493
9.084276927106634e-05
9.911486981974095e-05
0.0002177703390127652
2.135581847925539e-05
7.799465002731069e-05
5.245402023853447e-09
1.868374268441566e-06
3.488790167774936e-06
4.625319440796363e-06
7.813969876504876e-06
7.657319133400509e-06
1.38149374298151e-05
1.201208832116971e-05
2.228016795802237e-05
1.913179238307557e-05
3.478672055047782e-05
3.053025151379436e-05
5.395062756416008e-05
4.844548346535795e-05
8.543556625006574e-05
8.167255072875789e-05
0.0001377168041964731
0.0001497000867999798
0.0002240813079938392
0.0002799639381090472
0.0002067916343611329
0.0001388540589178294
0.0001251927463911767
0.0001085369772647571
0.0001229837866827242
0.0001369368943174345
0.0001487719989891026
0.0001577206044708873
0.0001497544991726051
0.0001423428139306414
0.0001835332799040312
0.0001642895407524802
0.0001997025471950388
0.0002430116013742258
0.0001153990708525543
0.001334365930356595
2.430961186660788e-09
1.699201605076924e-06
3.424263616482952e-06
4.215384850890683e-06
6.757205978827461e-06
4.908180830888596e-06
1.004199942391305e-05
8.700773173743914e-06
1.89220206778294e-05
2.270293556811e-05
2.41464399718139e-05
3.86156839150349e-05
3.25906403865742e-05
5.534550448696997e-05
4.592338598349347e-05
6.648606874546842e-05
7.328747582971182e-05
7.944321023980041e-05
0.0001080816543670496
0.000108590511104758
0.0001691150547495752
0.0002098567105333353
0.0002999273974355511
0.0004089830417867615
0.0004657935501148838
0.0004920116831012825
0.0005908922488292238
0.0008446208054211529
0.0009406679259444038
0.0003963400693724443
6.444527719259131e-05
0.0001989563356525013
6.884536197713514e-05
3.614203970742331e-05
4.771405948646112e-05
0.0002923565963675228
0.0002019535029089766
6.428066363568592e-05
0.0002072603587885228
0.0001017746978460088
8.516536698922565e-05
0.0003549550580027227
2.685153036147034e-05
5.882892035247687e-05
4.150655878384223e-09
2.427054714055974e-06
3.783092235905075e-06
5.161091705907381e-06
7.917706410189982e-06
7.79987769595816e-06
1.402972420042509e-05