/*--------------------------------*- C++ -*----------------------------------*\
| =========                 |                                                 |
| \\      /  F ield         | OpenFOAM: The Open Source CFD Toolbox           |
|  \\    /   O peration     | Version:  v1912                                 |
|   \\  /    A nd           | Website:  www.openfoam.com                      |
|    \\/     M anipulation  |                                                 |
\*---------------------------------------------------------------------------*/
FoamFile
{
    version     2.0;
    format      ascii;
    class       volScalarField;
    location    "5000";
    object      omega;
}
// * * * * * * * * * * * * * * * * * * * * * * * * * * * * * * * * * * * * * //

dimensions      [0 0 -1 0 0 0 0];


internalField   nonuniform List<scalar> 
18230
(
25625247.65452357
8413116.145023884
29006175.81939833
10673897.28622239
7073781.646031031
25240290.5495449
6370640.996201465
8114878.928871222
6276302.543828703
10238758.93390193
8357363.048887844
21139507.27293712
8770745.017439721
9573065.097744131
4758994.889270848
4661872.444013468
12882437.60476567
8917481.324037736
7022057.986823343
17949033.07045818
14559412.37381517
9655812.156457858
9111506.141300941
3389571.497290548
3649617.056368844
11723024.47507927
10290720.08682812
4990663.069926483
5460379.396450901
15041821.89511223
18588612.63833414
9202186.535907986
9317377.882299447
7853081.175519167
2789979.893755818
3077372.186671251
12099166.04101338
9427350.757576521
4295201.657645357
3103083.930445942
4153673.435510823
12678608.64727392
20673587.20425098
8882842.494027141
5547083.076489704
8442790.351175485
6900282.3430972
2470396.835910505
2694384.063171341
12609528.59596292
9435814.08159288
4409294.711789214
3275700.943713214
1923965.057139175
3074704.847448085
10886111.19201624
21109838.64238133
7996755.793967316
4477561.828361774
3647728.435452074
7454358.378174938
6236014.721644263
2152198.048513728
2520655.867610374
11999213.00652265
9892407.910171945
4276091.147691208
3355986.99279474
1847925.394210612
1268926.26363565
2355933.92441125
9482586.93977106
22664248.90047742
7164515.604243119
4530434.305090188
3171393.610623427
2884018.414965781
6577106.586370315
5785949.54465621
1973946.808647672
2505533.761803131
11949892.62727818
10407856.00928101
4349184.887995653
3172016.751362668
1855045.818650761
1306224.151513361
977997.6756651258
1860871.022428015
8375272.266931042
23408677.0691721
7387773.056593463
4592442.69910258
3352359.747241735
2521852.053322251
2489297.105108903
5890396.730562504
5413661.891384419
1910028.861663641
2936965.467145969
11548319.75740786
10863838.36191992
4262381.732284762
3117743.726759776
1726099.606795575
1316105.085533526
906641.8037816922
798697.802992656
1517760.335160758
7428749.549434675
22860221.71824858
7744248.638065302
4698407.344612499
3475381.769888654
2698269.271325619
2120171.879053518
2218673.965521295
5348659.127744547
5150708.996826217
1894538.812383026
3709545.434756048
10819459.98249366
10791743.2998796
4226862.715751012
2976856.136233787
1681690.328815187
1266893.629839467
919469.705797361
718940.9912290903
679700.7031871692
1262392.699356579
6606910.040169791
22583211.18967447
7953980.945519656
4766475.432847819
3540757.169104654
2813018.400537423
2264647.747491478
1838281.922553782
1963222.482161307
4857738.56268031
4958103.213174337
1830169.106202411
3964786.894982042
9974765.521316702
10221719.76110845
4038661.355037714
2734979.284233306
1642087.568703448
1241025.221651179
893503.3621744451
752553.0467698257
588666.6357784586
587107.3501008225
1065467.758780067
5857788.65451401
23303981.08995811
7800808.187080849
4813784.908643813
3578430.085800215
2844125.472868776
2373296.125530254
1961213.26078045
1633985.671688394
1766625.772010629
4446275.519516732
4874553.824751594
1766109.039261222
3934623.944945713
10410522.95940176
7416321.74722378
3717566.924943766
2548250.666439966
1565371.135887031
1212862.904047269
888380.6278772607
740709.0271112317
619826.3962785837
510977.7662507323
517504.9356798541
904538.1471278764
5153113.927542647
22277069.83632347
7724914.569454896
4735841.923306162
3603451.898706985
2859212.586537774
2390037.325051287
2052408.138401507
1739059.45896275
1484690.513998918
1607984.88223298
4078598.46361781
4799685.777935018
1758853.045138187
3807619.785315626
10890819.40307904
4168944.602289642
2855397.840479023
2285863.036930456
1491834.515565064
1178092.162389389
884231.8447913162
744294.9441931627
612420.0912470423
540049.0497698649
443220.0589938678
453203.2476660132
767140.7900976819
4521182.482748618
22347236.78737952
7723283.020200001
4750079.046929403
3567737.323398104
2868928.320020983
2407398.897636528
2064651.107812806
1815272.924275157
1566764.681659594
1359000.910939165
1464021.488790306
3696949.219999728
4734956.868773338
1867488.153513554
3657087.603330605
10629011.51704444
4013736.640294266
2179463.137549407
1951123.887976622
1404976.55014582
1155738.594727234
874346.2586797391
744132.9664620275
617950.411013276
536076.467162261
467325.0040986494
387217.953842284
393831.4289312859
646429.5247553649
3934235.252241394
23507417.98259701
7513933.074517873
4786486.183731938
3583355.804908965
2852752.23218697
2410772.947206298
2079329.603058846
1827370.193591362
1639106.508502974
1422456.235363852
1253125.760657485
1332416.155849564
3306992.919413148
4664463.716368876
2068342.14214682
3542069.204962252
12495140.77537095
3371066.73266118
2246514.496392955
1582987.251546752
1315248.553008552
1121130.850827152
869446.1937826748
746385.4045255391
620310.0665033258
542023.1377803463
464146.5635921638
408148.7812181053
333390.9051672335
337215.7306538451
539129.8189469207
3379464.541111954
23677459.07327178
7660337.540188159
4759053.137827349
3629924.063513303
2858723.194300329
2409481.218158419
2083811.075504751
1842240.208552349
1650852.951196279
1489381.844893162
1298673.102267696
1156242.898917308
1208734.566570129
2894189.676895777
4567597.674737945
2287795.944809464
3474566.830394837
13479816.30514909
3909714.906681522
2228287.508636596
1673302.815537305
1254700.048793114
1084482.671396384
868643.829690616
748362.5333489151
625547.3247263517
545880.6510446115
469538.8630504067
405107.0252966246
349418.6016727658
284916.7366124822
284898.2565255524
444631.1240112903
2876623.809228636
23969743.0068995
7985831.4203211
4785312.257546323
3626141.495426401
2899871.293830648
2415398.755335222
2085689.28121723
1848758.355813863
1663313.209395945
1499513.808389074
1356444.295842519
1194161.25379582
1057202.34164869
1093233.611502669
2458853.236973624
4391443.341417803
2393417.441324866
3432437.221400365
13697078.20661128
4788547.473096359
2603524.654009943
1764843.611213426
1337672.18391536
1089570.029106206
872293.2410764486
755511.7377668766
631605.9394654225
551836.4751852303
472674.2812050968
409216.1102569156
346415.4267711171
297754.7980606169
240688.7452464914
237590.9927744812
361648.8636335995
2434630.315435393
24069620.52140443
7475639.971233083
4882384.760463241
3659574.140220092
2905563.03294456
2454050.54353631
2089588.777492488
1853816.169690504
1666640.166680285
1515611.406544329
1362312.912849495
1248574.806048498
1062378.490517594
967702.9854899958
979671.0358671962
2021421.41770081
4130204.254627701
2452778.948166548
3306184.438910629
13182924.78810584
4892871.052331697
2912616.011835942
2090335.663179046
1486664.703263352
1146109.500462027
908688.0679812762
768781.5561710136
642672.9821215739
559275.4888626735
477190.0083541156
411732.5764104568
349209.2263603347
295020.7105268787
249783.0930235713
202209.1419625994
196868.4953235475
291595.2850663436
1992497.497652091
23988652.92195971
8080831.082163589
4725681.722575636
3706787.432014332
2904750.865482927
2464059.13577625
2111742.21379761
1857522.812638808
1666122.07903561
1524376.079391324
1369048.862187985
1254820.885168037
1102821.110173818
975836.576932473
843838.0966640105
865696.4710433948
1607875.430233807
3766109.451156825
2464591.203471285
3110908.17635087
12746393.4425538
4702305.526793896
2914957.306855817
2277330.676670646
1710951.133011427
1309114.99009052
1001059.761688003
809602.0107909588
660591.9912085847
570088.0578608039
483046.9815161094
415543.3399728604
350619.9254758846
296879.0756876446
247541.7541291242
208574.6557860419
169639.0326998313
162511.3829044799
233933.4896726296
1593124.819521963
25161445.29193746
7766182.713782711
4928510.212888614
3609425.353851677
2936166.170678043
2455819.534218575
2118475.203252018
1877083.770210527
1667624.094907101
1527493.497313751
1367815.702494471
1265314.402141371
1106755.368280642
1018141.766389574
806741.0425820773
724508.5096685236
750854.8461003406
1234775.575975078
3354508.911221978
2453951.409138886
2861790.024270859
14193780.35373174
4242891.640314855
2794553.864557313
2229148.140702857
1773880.230709712
1523018.615333204
1129631.867981625
898278.7988112419
704200.6858284541
587497.6812500792
491051.3818702986
420163.465722786
352606.777834982
297638.1195287778
248394.628843793
206701.6322588266
173730.0831948515
142149.9817002444
133510.0444692204
185712.7885804171
1231404.641557377
24507008.2920488
7677340.22336083
4891221.180721249
3740845.321303487
2897801.855620439
2483418.490985376
2121901.72175455
1879537.008272915
1672709.709146246
1529416.756723318
1363535.89862612
1268269.582625366
1113156.215261324
1023401.352721866
834821.5015147796
692838.0410703757
596416.5936522345
630792.8672386009
952423.4863089649
2939384.669805073
2390890.302673695
2581663.347133679
14095232.14545663
3303619.550485417
2605466.555456666
2102075.554724051
1703556.745788583
1572980.966460358
1220282.487420083
1010590.110000169
771033.3817683065
625629.907488973
502807.5481860996
425605.7343214373
355445.5278895497
298754.1978429393
248544.6538637691
206949.2554621358
172165.3876091849
144497.6529268058
118823.6358817154
109185.2455980506
146081.8287115407
906790.5601497743
21750463.81469599
8055677.474824439
5029614.602668491
3780074.92875761
2985943.153609428
2475506.652665967
2132335.804071623
1891032.987222512
1670674.846670673
1534775.847170947
1363715.068864185
1266236.731765782
1112370.382764618
1032712.295535368
835957.2328418634
717924.4974883121
551521.4778615175
463992.6484933345
509668.5223195927
732247.5468003731
2533125.744298028
2275032.061302492
2295033.645570295
15251947.66643561
4411758.319936289
2426336.012630111
1997222.375979967
1655791.546087652
1459641.104895123
1232817.745392607
1079279.723172642
839179.1083323066
680228.3100328089
527667.719229213
434229.2252415328
358986.8193838929
300405.9449306048
248920.6192300699
206697.9036411408
171918.5178324608
143202.7223573539
119863.8868691328
98674.74146221619
89559.29986018043
114666.6359992397
641036.639188019
21233764.12114012
9265256.253683344
5358824.713012578
3994468.691141338
3095112.095954553
2552243.03242956
2137875.766252504
1906611.244049127
1673601.350336918
1531660.085156236
1362923.222640711
1264877.225938948
1109461.897508547
1032242.221269707
837781.7880607703
716521.8853761768
566428.4023840997
416002.6989120243
343899.1528854643
395344.8496709739
555565.0678543934
2154693.024088152
2111746.690832988
1993188.991860761
13680471.36906494
3371577.861102781
2774647.89890003
1981829.494895844
1626646.879728314
1417989.215274321
1194101.856953152
1091104.426459288
878814.9646379472
739618.7981706106
563966.8779677132
453111.6484894254
364649.4313209823
302798.9005590833
249383.7707469777
206622.0319326255
171377.9355015063
142757.3794949222
118808.561727231
98816.32341430555
82089.90644781107
74420.74125005135
90655.50882469703
435305.5906102966
20802438.487777
8785410.76829946
5654508.080776984
4367752.804679946
3306217.357495739
2676479.109270055
2221453.651561917
1920899.756228649
1685996.066623755
1534862.529260853
1361487.297718669
1266861.102359884
1105948.64454992
1028892.297556637
836094.090254311
715776.0533700882
564581.265250206
425079.9244051338
301063.1630722936
245309.2241727635
297439.9581879443
414577.2624413599
1811261.413798395
1956954.529530038
1701184.189665896
14213501.00271745
4950451.320522882
2580498.838942652
2167351.252443485
1656746.012748542
1411353.691035979
1178417.924120396
1073089.942313552
881456.4517424384
779596.4427973892
599874.9884311457
482936.4080826974
375738.1947962435
306415.622741996
250894.9459440167
206506.482482334
170882.1817870151
142083.3035116628
118250.6056324644
97882.10385764104
81739.21517181025
68804.5957867285
62913.13990771027
72896.91564533414
304166.453868636
20410322.00813356
8498618.285463426
5390279.884891283
4467681.40813277
3573529.353570162
2884040.538726451
2364578.350879624
2009962.770099496
1712322.726604997
1551239.108743837
1363017.536990514
1263605.069367712
1102714.715036141
1024104.136502579
831289.3279103783
711362.2189217688
563647.8512334231
422826.7166460317
305275.6604782701
211706.6576672713
165932.4371093464
218965.4657113178
304153.9525002207
1529871.516010913
1785083.624056481
1440309.678984346
13787565.20354994
5177966.425812318
3045022.39519927
2176462.399607197
1757373.205003542
1464580.230642581
1192222.74959656
1053047.661154207
873738.2288578337
783648.3969279918
623112.7283469832
517095.4172986991
393020.1862670674
313932.6326987889
252762.7500839101
207055.8917550639
170562.5534452248
141418.3963211311
117512.7866348668
97174.71972400289
80904.79156956445
68214.70709794947
58449.91536465126
54103.0734178495
59985.79418511025
224531.4960980305
19882613.9240306
8004320.341530104
5347309.786083019
4256469.494024326
3507409.21221002
3135326.228767578
2545998.414502217
2144028.876050143
1801884.325288283
1577628.117056443
1372604.01561684
1266970.039634191
1098623.765273911
1020466.487282471
827682.5237937163
705397.0666400219
560330.7151692901
421837.67558409
302918.9540386577
212499.8586138109
138225.5408836666
111446.7073477364
159714.484996189
222486.8529994995
1266152.952716571
1603002.871499608
1215646.534917847
13555220.54064558
5108174.483245861
3117873.590642957
2376145.401595949
1785474.249053982
1537725.297360169
1236570.939251472
1065043.204957231
876588.9691765615
774797.7735920034
629142.4388571251
538915.2429741279
411503.2517008324
327574.3264536085
256108.0462720632
207932.1629062247
170596.2214346647
140931.0880703794
116797.1798090544
96377.60086094819
80193.44324394202
67423.94635219846
57774.40117902993
50377.47773440921
47249.30674890699
50710.90400228272
174498.1194223801
20017198.28943764
8609030.393394399
5458234.642440126
4351091.35684819
3386910.871377604
3064514.201427888
2686293.854614644
2303618.119787762
1932965.020181366
1661357.07806771
1399807.733342266
1267194.077560216
1094278.532293294
1012787.802820852
823870.7945270129
698931.5825919341
555696.284656718
418663.0014956116
301685.8549975233
210338.4374352731
137244.5546541683
93648.37323031644
80295.27977225366
120439.5096887767
165176.759186834
1035255.425313567
1417402.541915488
1030618.561403496
13559195.85388974
4950873.620427232
3096153.226200276
2409827.164439759
1869617.867781721
1581791.57622444
1278513.426917745
1106883.40350988
894448.0895948209
776483.4927658382
630677.5885525219
546849.0539278405
427174.6923811665
344610.4597187428
262981.3377386383
209260.9124780224
170877.0709267204
140553.3292560129
116163.7396789754
95572.5806018797
79445.91232388884
66727.61671601723
57023.3707158723
49675.71470801828
44006.59674085656
41729.85294135856
43952.44139651817
140940.1599054754
19951356.04011472
10303823.79602765
6037313.103289248
4907689.830788117
3526544.630206124
2979069.206615783
2547977.07837287
2432068.255853246
2036220.18904879
1756005.250872074
1471443.357097912
1275306.015854419
1091812.055809041
1002943.480978141
818720.2007271886
691792.3679492776
550896.222237104
414980.3147479704
299033.3642203564
209199.1931579961
135458.5871396302
93258.62156466536
68211.28345841162
63427.19065985452
94620.7998986106
125755.1431797833
839010.680293435
1248167.993762983
867589.7608312232
13572364.47821582
4915715.835448962
3062787.306007167
2391373.095619073
1864300.172844084
1635119.375165508
1304536.617466812
1137881.257978437
914591.5243411318
791205.3980986031
639457.1328965827
546264.7170624882
434524.6425578684
359218.3329230312
270631.4465225479
213574.5727615434
170113.8409315425
140122.7041239765
115496.1664966783
94804.90174888607
78710.28043992921
66020.49169309277
56382.28748830305
48919.72116696784
43264.32480657828
38794.2353073896
37102.94118110743
38936.5251379872
118395.0461484283
13839297.54850576
10721232.69181201
6780712.112064729
6313780.887685369
4020814.529705981
3110880.873168213
2472795.752894646
2316809.688663409
2039723.160776466
1819142.070778942
1553863.925099317
1318433.973565893
1094900.814351549
985732.2155187709
811609.981149752
682306.4055964557
545332.082605029
410893.6528842283
295948.041149715
207176.1676254287
134576.408113891
92386.34121692493
67984.85123884467
53423.3784153492
52567.91200701905
76858.31374361092
98790.48753204294
677317.914959208
1071944.076218754
787036.1395706654
13549549.80263209
4910680.529094357
3089337.804680828
2367703.180612532
1841619.401601908
1618244.364115327
1318099.139922345
1160005.806990017
928553.4209660429
801428.1766604681
647260.1738339736
553103.2349562689
438206.7831104004
365204.3344285064
281858.5758275881
220287.391448353
171055.7959512423
138256.6722765245
114559.2761126838
94008.70041683278
78007.0213464525
65335.44149635988
55758.47903512446
48347.04456327503
42504.42118803391
37995.69602910319
34361.83676633619
33198.29744667238
35284.80313308221
81495.96486221006
13932891.24313861
9218737.984882688
5734805.213434501
8825250.619855504
4596464.276262625
3595508.636036169
2557611.726519218
2229862.441043121
1875489.88334037
1820908.211444861
1547326.801290624
1363996.80842573
1114858.716162722
965920.4867065385
800864.3777204308
668817.5227704106
538297.9696129935
406662.6039527726
292693.5393017897
204978.9388825371
133341.1153724148
92015.16237481678
67496.54068236276
53560.68790132736
44589.33107247201
45220.96422349606
64573.8831534285
80749.89728655499
547721.2465195344
1000086.060275511
860775.0847075962
284923.2206465084
13539338.71572774
4892009.038983872
3066919.586738264
2395689.855071704
1832928.350168425
1584061.384464611
1305565.968387551
1166953.666799417
937916.752708316
809531.3545540376
653834.3452923066
556155.5577647736
442921.0124972893
367559.9319993283
287092.1313180465
229542.8236965663
172362.8850566245
137622.4569178016
112070.6644102355
92848.44228288587
77329.34495076518
64659.66072719789
55160.2077139996
47782.03797763729
41974.65150230735
37263.2119440382
33542.88065055495
30867.19695601508
30421.97582152305
32083.01296203673
48817.73901236459
14194550.8324958
6669484.696522324
4169667.147083404
5325590.638437954
4458215.558253577
4155061.750096697
2829757.57322265
2217941.007527387
1827926.700906934
1669661.083902734
1444603.414425307
1359118.704668172
1116215.529977891
955957.4976201243
783789.5008274143
646749.5825724803
528035.4350415184
401070.1876089778
289333.3191698124
202478.0598125692
132030.111126357
91502.82686449205
67355.09552576167
53222.92158325016
44869.07144096815
39315.32134882407
40433.46933213991
56079.52311441654
68377.4149039348
412101.2391863647
856853.4759007044
822863.0641727251
206608.7506196578
14145450.32010779
4847659.270359519
3000540.029771817
2377156.231886801
1845498.719718384
1573879.293694124
1291090.296387756
1154608.268339137
936448.0618992477
817394.6050740195
656628.0961724786
560674.1370860242
445843.9000953176
369685.8965703191
289181.841408067
233577.3041228264
178211.8217028418
137832.9774192046
110170.4860084181
90436.88933476592
76209.77103816649
63977.09127163514
54569.45047860094
47237.77331016648
41447.39217157065
36764.19454995818
32852.21586384213
30127.11400985337
28335.52603866405
27933.44314703481
29720.02422034238
37165.92837426929
14300830.1175253
5484190.348943902
3430698.411243574
3328179.756574743
2924498.509182616
4107013.411662729
2917523.105860931
2346912.9951733
1893575.291029463
1592512.571317754
1355167.90199422
1260404.00792581
1089756.698220891
928842.8372935867
774922.4547263881
617028.7437839793
511114.8451816614
393535.9954870082
284657.6027759968
200004.5890184371
130634.1925963206
90859.25402593028
67108.35916211251
53154.6521452767
44603.66198895071
39609.41421635428
36194.02970621287
37421.8098493591
50570.05272655684
65581.16400034534
509206.4424495763
142255.7573368148
856177.9223995087
824593.9118449492
535332.2175433704
80121.67814099223
227810.649135748
14176133.49418191
4898904.52274982
2971563.476123091
2304185.853493802
1817324.313464114
1588126.534985021
1283254.612198406
1142318.238081109
929539.5462316765
815513.29241846
657991.7066597443
561774.6167873419
447949.3492754137
371690.28992375
290952.0006403521
234644.6490175264
181013.3785785451
142097.3493857905
108715.8539489944
88353.1792575627
73775.6990068007
62811.39222316624
53909.70200609951
46683.7575718007
40931.88509798308
36274.8884412562
32394.71711061044
29523.4402120221
27475.49872600023
25889.8765143178
25407.63290400749
26521.89734779468
27515.90109412068
14908370.57695262
5423839.1409331
3298451.076148946
2688797.976209255
2323241.541459425
2379197.14340226
2388447.695694599
2326251.164539248
1947208.028023052
1544904.500898842
1355435.638337113
1127181.66554246
1031517.728502136
879523.4665837673
760432.4475888634
598307.6575799467
488049.1415536111
380889.6116280265
278557.8919058901
196567.0375029268
129283.5972980521
90261.84374798682
66806.43119248684
53005.00342130764
44567.02926875703
39406.54815864747
36479.82188974704
34493.75528388424
35977.13711389401
45445.34701969239
64231.83381786597
50270.0880760634
349156.3563018696
94243.2744215675
678662.1051429507
776853.0442717276
472681.5308494634
67021.62388059376
120530.9272356903
13754450.79980856
4895675.49714039
2981257.62903785
2282190.845084552
1801932.364933596
1548031.489986587
1285577.359840548
1132323.078073248
923866.2324934893
809311.0058431223
653834.0995497182
563712.2917192549
447437.4779433277
373120.905658914
291885.175032648
235685.0205298221
181813.1038519846
144198.1534536925
110633.1691182962
87176.40184509284
71499.29626414421
60373.58513169817
52736.09609265062
45993.30403533005
40374.15773253541
35782.45637836873
31952.10571334372
29128.55616629417
26777.49170679936
25004.89591491027
24843.18526944308
24146.94178379302
23602.34102520105
25093.26194059175
24916.28435481851
14954738.87935799
5509716.044444066
3336397.640035721
2703736.703011165
2137570.721250298
2145010.188308295
1736583.106630779
1932530.193491378
1783724.098140675
1518145.122004031
1367294.61643086
1077932.716627708
982464.0376517061
797624.2771960838
732109.2122068628
579361.0086404864
472966.1454214077
365087.3474653688
268529.5155785822
192033.6373794252
127485.2019822667
89680.8812322639
66537.11066310095
52835.19633237668
44465.18746497053
39383.54733558365
36332.34371638174
34637.4062849724
34115.54834331232
35018.80462877893
40119.26615617043
55270.82984908754
45727.34012502898
394999.1070356893
123744.0817360443
76307.26132006504
696680.4057404781
597894.3354962424
743347.7514684459
201312.8770189655
38833.93452169104
84148.82458610849
15425271.06830805
4464071.324561738
2909032.945496895
2286806.001204272
1775308.602044795
1548570.40901862
1265327.298559789
1130931.449850822
917084.8786222863
805361.7874801314
651945.2562751895
558496.2695011134
446813.414031834
372689.1403742058
291923.4546476937
236311.0332027587
182624.4708478041
144729.482711942
112051.2251318791
88447.30149184422
69793.94561703211
57954.34755062812
50187.83088416314
44715.18759000681
39650.39606529994
35219.99156481894
31496.91218316095
28742.70422423125
26258.85799868117
24263.02422306249
23552.88288965182
22256.85931881977
22089.24225711402
21807.76978685062
22427.17003532381
22268.95886511114
15531130.97691818
5608459.334924685
3368822.34221994
2689683.840117953
2138768.557271029
2091444.075529778
1644222.588633279
1580024.44525506
1406550.630578317
1414756.588134399
1281624.702189564
1041446.18645997
923463.9395851596
753738.9434359056
681889.3053433617
557855.8180664583
457566.3203037026
355750.3117471374
255876.131839547
184666.1091868054
125250.6903863953
88879.35555302832
66281.58618435339
52694.25191942262
44364.69139915297
39302.95108436292
36310.60248401488
34582.12576030949
34136.0142011178
34530.43420342993
35793.53550473649
34653.34653638041
41219.1206177293
46428.33710729585
54504.80437197459
206581.6588072463
88852.45053254192
70429.9955353851
651205.3052095735
529269.3330531223
713045.1790270321
116309.329901904
41249.02494024381
67578.13712418525
13555891.29004875
3313475.899444397
2711874.676401961
2199244.469011971
1756992.622197883
1518429.905682788
1251953.236502515
1116041.41006986
913540.4016405637
798510.7940539807
647517.2351884168
558011.4124921643
444575.0170954181
372466.0997028434
291509.1736321851
236430.9100445313
183013.3261889703
145279.0813581287
112534.1401551625
89573.37742184039
70707.23739755663
56327.66619372734
47705.02889127455
41938.20678443173
38346.8342910311
34462.70311864334
30954.02653348272
28313.35808412709
25689.62974657543
23891.30241005422
22819.21970698919
22003.57192058523
21619.09861621598
21447.57964317063
21321.41772245809
20875.87053427959
22049.69759187664
20847.37793859321
22859.92531225334
15723167.86270556
5334218.283259445
3371598.633219599
2671178.299383321
2159644.329810882
1997067.496060288
1614823.392928333
1528526.452384932
1242185.004776621
1229426.540300076
1179803.599315637
1022121.533967604
883139.4788705071
722288.0295311998
634089.4054822655
529938.8865282161
440007.9838683014
347534.6158308939
247052.6882384395
175586.2034978149
121779.0825522003
87839.54649210695
65891.32211195445
52536.54190232966
44278.9646639307
39236.45164350006
36243.01995621763
34549.18556835
34172.26349087048
34801.38083123739
34804.80396817438
34895.85459818291
34702.28937382551
39863.07731203995
41454.06847586877
49308.93837605726
158947.2247408137
86406.96852758441
52191.57685513407
322132.3036733643
679941.7836642331
611312.3547247336
225628.1775527242
74220.19417497725
34370.576779722
12860111.32789467
4719981.279936908
2444056.090459823
2063475.954735491
1716318.717722086
1487196.512496698
1229937.069723287
1094924.921417229
902591.1173883452
793830.4483569111
644767.7835932729
552465.7354774672
443458.4130134495
370846.8727821002
291469.7804625265
236418.7018133274
183249.2187513727
145673.571086101
112871.3327060503
89958.99412711909
71276.5507845815
56999.51647007463
45726.39642567196
39556.55518033376
35748.06842290745
33146.59721598731
30185.78351864481
27752.84199348608
25078.25408412989
23101.54618800404
23024.90966775855
22576.36851855836
21276.51202176376
21022.60373131331
20582.86173773179
20384.3464201535
20514.44124787961
20361.95416421235
20995.97205660174
20085.00440409843
21206.81164294248
15675525.06482893
5017690.119703597
3265958.612979973
2621686.022777384
2110736.151289261
2018622.446506985
1587404.569629544
1512076.766028627
1203832.145652752
1134562.439405724
978926.4087302072
986007.8949378894
862453.9781151592
720005.2064487953
606350.9268854767
512101.6242329634
413853.7076601245
337629.540051493
238446.5256714486
169217.9212647644
117643.8349651505
86256.37836500774
65403.93309094146
52312.57275300326
44183.89581374984
39179.67514772943
36194.87507557429
34493.2775627303
34132.63658515373
34965.36833642908
34831.40055455946
34959.01599583571
34717.95593461156
34760.96482218196
34713.41032721796
36229.42553098035
39124.47889137051
42212.75607504826
97187.28482379526
80527.13033857063
44252.93597923861
238636.9885775717
657912.6008891576
564739.9432923624
136627.5368823508
63724.02869719612
32182.64843187431
13352476.06032088
4652421.162137522
2925451.803770327
2000103.421873082
1648198.886463202
1449061.768457245
1204316.604022096
1075211.540860069
888663.6467972259
784272.6204066764
639896.1162969788
551332.606926816
440435.4686447202
369777.6763716836
290625.1229409134
236724.1881364439
183323.6965323973
146024.7988772435
113163.9497702002
90309.29802590767
71619.29172722095
57297.50559673348
46006.79770100695
37451.72629171082
33306.42464390714
30782.27029566061
28874.17321179199
26910.36447453272
24355.02422087767
22862.51992750228
22010.6668526672
21395.72548835553
21253.59924682214
20637.9648988566
20399.02140763411
20164.20446064093
19924.4189654091
20030.50966316659
20134.37081520835
19882.60777368373
20930.69551921034
19772.84787608106
23202.19788586614
15745290.21395433
4985851.402107434
3220770.82351872
2541579.506775682
2084658.28899334
1913296.667416084
1592138.818814845
1486243.298660189
1196599.456650722
1101261.69093845
916515.6069652889
884701.6798268498
818378.7172558261
737870.8073062917
596592.4793917661
499998.4008998827
394160.6490345084
320192.3261336696
228826.2438757297
163452.834423515
114317.2005801379
84332.62318660751
64612.84808889607
52028.5730376126
44040.28653717128
39116.45678920676
36154.19857740181
34453.97942800063
34061.58139893371
34965.8725497513
34931.97597511499
34807.13192133177
34824.82980098034
34667.89012719027
34553.45658628807
34568.26786510414
35406.2140530481
36860.76395400301
38344.77559796456
110736.0319208336
64662.17816886739
39104.2315985794
44920.25603651142
249306.3113682514
465417.4164966526
607649.9150446655
277185.7471325925
78448.60117703318
61544.34399653274
45353.33119075543
13268204.73165105
4785682.568610618
2870201.031944535
2231821.683755486
1632372.887195721
1396554.784472916
1176575.47061033
1050351.252247964
872062.9403545519
771724.1639318434
630611.4951423869
547020.9226003629
437584.0201412661
367266.2052729712
289702.6508037804
236093.2721179989
183482.7716195067
146279.8519220533
113516.1390250968
90643.31530652402
71946.35237880224
57590.08152610993
46190.44519587942
37586.25795904001
31088.01899135072
28191.56185629303
26683.81475038103
25603.90943310165
23445.55456545868
21742.51781976413
21417.57730376069
20717.91462227129
20040.75529610075
19845.74288736314
19733.93975225285
19734.47568710402
19574.54005923479
19585.7854075887
19671.97998942799
18748.87946090682