/*--------------------------------*- C++ -*----------------------------------*\
| =========                 |                                                 |
| \\      /  F ield         | OpenFOAM: The Open Source CFD Toolbox           |
|  \\    /   O peration     | Version:  v1912                                 |
|   \\  /    A nd           | Website:  www.openfoam.com                      |
|    \\/     M anipulation  |                                                 |
\*---------------------------------------------------------------------------*/
FoamFile
{
    version     2.0;
    format      ascii;
    class       volScalarField;
    location    "5000";
    object      p;
}
// * * * * * * * * * * * * * * * * * * * * * * * * * * * * * * * * * * * * * //

dimensions      [1 -1 -2 0 0 0 0];


internalField   nonuniform List<scalar> 
18230
(
25320.89729764469
13740.26670780388
27959.91816117452
25386.50025801923
4792.880570660847
13956.84276431726
19790.10347855226
27925.73206670739
25346.7144390454
16746.19819786435
5094.433863258658
14023.52900816816
9512.302693644237
19839.43952465623
27923.94260418156
25369.4897067146
21849.84139413398
16980.62890580411
5318.216763143028
14087.89463263786
13666.29714925417
9786.816383000723
19871.75064173529
27891.47645866787
25353.259687945
22487.80793076539
21926.05674680438
17011.36740214319
5544.077685959979
14235.95556585675
29709.96950249224
14058.7887380107
9860.407778063152
19958.50355276781
27907.85567346926
25347.70211585211
22992.86940575096
22538.61810904615
21874.36035294408
17184.09893916863
5806.60865590308
14438.4935615682
40926.75483691004
29767.08224928507
14249.63111047626
9999.698065361905
19931.07241638164
27901.32801798069
25350.94929736768
23649.2554920312
23049.26495972677
22495.022249608
21923.48364121256
17335.45689902898
6113.089931114735
14611.32524437368
42333.26934807023
40973.99133163994
29912.38113836709
14477.49064931169
10152.18970130266
20020.73022196646
27900.42672726504
25378.41270260657
24399.79341655007
23714.2115215609
22997.76615285501
22515.67561502038
21927.24052978843
17505.75646142803
6454.99411985296
14826.1684069059
43333.43802650946
42337.97335186534
40922.01844353226
30116.31550001322
14782.20005599738
10334.03390128198
20081.96026258399
27866.80107996286
25408.81741239535
25252.1138552958
24465.39974212889
23653.32462659457
23036.9838020758
22515.76604937227
21957.28790156326
17746.14024895647
6845.07156524851
14984.02350625449
43543.05211873954
43346.93737201585
42345.35718910376
40983.37353849467
30186.59534574718
15111.18961583357
10518.62173787004
20164.97100704376
27852.01366378819
25473.33390884842
26281.11590250891
25338.97120570094
24408.20879887541
23686.83569992871
23019.53366297838
22531.84524358933
21970.90766647038
17982.62392183368
7286.652716606667
15150.74037376092
43472.97611439745
43548.39505830898
43318.86362551435
42346.07490825297
40954.50583933224
30452.569494094
15553.4976042189
10714.07412253149
20253.14684441024
27840.28048480412
25512.3739579784
27408.0209284298
26374.61963539438
25253.12778821894
24434.03037570471
23680.86862727091
23037.98470963549
22543.31715063016
22006.25831177794
18248.69702542044
7789.577054543101
15318.50545248094
43308.32367510958
43506.28175637878
43539.23842192529
43337.58315914776
42353.84555200331
41008.69868343075
30560.61176207765
16007.28313156987
10927.38305596252
20415.80236610294
27790.07121173528
25558.53145471021
29309.37167801801
27516.22838977653
26277.8501805292
25294.97863261935
24431.06149433199
23697.30177001734
23048.34817521625
22559.56529029801
22033.27636563945
18528.41278009243
8350.131356275981
15528.31183859317
42993.79086367557
43327.40503378028
43467.89350066104
43547.71738228789
43321.36195614446
42363.69147464421
41005.92237461486
30812.03462837809
16491.51421767167
11142.3196394079
20556.72392426791
27723.8333676608
25607.48883939823
33956.63479807947
29415.12571165504
27403.19534952683
26320.99244679378
25282.41661831726
24448.34657998317
23712.13675003617
23064.52250594089
22577.11568700584
22073.42752448765
18850.29379250876
8977.431935383658
15812.91434123977
42824.7177025972
43014.66403034886
43320.87658750753
43481.32289491782
43538.51180389479
43339.66664823037
42369.30934739187
41072.19395017358
31090.13633353231
17098.68013207957
11339.28576016804
20781.16516733012
27734.8499755847
25713.8207491179
40767.30320232503
33990.70038700927
29308.21748517303
27447.80210762225
26305.23802178217
25299.57882668226
24456.256173432
23728.24206647558
23084.37222887759
22601.14025158545
22111.30183255105
19182.83166663315
9680.430503267031
16110.6302621265
42530.26814208228
42838.49273467599
42990.41583262053
43304.5343983858
43473.23742489389
43548.50579410313
43323.28376702162
42384.37082793125
41050.035660817
31422.75230983109
17733.0069758709
11349.05722946499
21083.42613234709
27797.58612480328
25892.03659662207
50251.43827862399
40807.78327531035
33944.31139158194
29379.48158939933
27431.79059493695
26321.65961269688
25314.9543053239
24478.43197665862
23750.14502071287
23106.41888841084
22627.41084868324
22158.93656586267
19518.19132447645
10439.8325987382
16392.60050136453
42062.18685259393
42541.61832658092
42837.64933907949
43001.45567575525
43326.31363142598
43478.73278897697
43534.03263940799
43341.46433990313
42395.76598626741
41141.94927498947
31723.76613478388
18449.33962016728
11432.54805257812
21504.55292098149
27923.13908921072
26256.57399723779
55682.54278546589
50272.71570192956
40785.17654837512
33983.47031778569
29326.68410342475
27455.24503426121
26333.42925518885
25330.7789164251
24496.47976989199
23773.65998609211
23134.52974992485
22660.27988796574
22205.4792364317
19876.87469191989
11262.63282463681
16719.22596938488
41267.72030681437
42063.6475322486
42526.41987420626
42821.92759544971
42990.04852447773
43300.20806036219
43468.39557834413
43549.59883693208
43335.11397741268
42413.82799623938
41133.8255505552
32181.44186478931
19210.22043391239
11518.9099491261
22147.96502149522
28057.55274879685
26849.74508513459
58060.2904480319
55696.26361895597
50250.33867909419
40773.30354070738
34010.0461182678
29380.06037809327
27453.49313220247
26345.32251262002
25351.05596720327
24524.05339505633
23805.01369955276
23168.70035595427
22698.76616292174
22270.12558755463
20222.70684707219
12117.09986730858
17115.61644447912
40310.10875170039
41268.70865858469
42058.75815737239
42529.97840308829
42839.65181342206
43000.81917882262
43328.20679200136
43482.8065841014
43532.15927083704
43346.91210347041
42432.72242155087
41241.18899404041
32566.02974721053
20005.85305915037
11576.52947337772
22966.7129755621
28138.22701621443
27617.18449230251
59797.16041175657
58051.9273383059
55681.88962528152
50268.25983774045
40804.04937078194
34001.88833954348
29364.03504506951
27474.52359621247
26364.75010029991
25376.08297020242
24551.74477106495
23840.51207570596
23208.48860023184
22743.04342350488
22328.77833445483
20570.24276732693
12993.71421763918
17588.85894165282
41415.75274088173
40310.42003303015
41261.92915737944
42061.40106892941
42525.86756946633
42820.81076345174
42989.22627286213
43305.4009774625
43464.90516870932
43548.62248670879
43351.34083280092
42459.86462616591
41238.7097173241
33108.88247731738
20856.26426197698
11698.69228250685
23956.40040720711
28355.92049147845
28555.96777131395
61448.02809098992
59794.03278575898
58061.45384064098
55681.07858336883
50261.21055788015
40783.1401164534
34003.94041412573
29407.14293421586
27486.81631755302
26383.13236228797
25404.15408916447
24588.73977085647
23884.17566376167
23256.4633240137
22796.25507715446
22408.28164606712
20901.90700578195
13857.73016256704
18154.4431506147
43081.6338043035
41440.74094939527
40310.76511898282
41262.57262008871
42058.03043246135
42526.19123914349
42836.56343945234
43002.78810693599
43321.95278968461
43498.89354990092
43535.77390486543
43355.37763990875
42491.30064261092
41326.2150147263
33637.53104974337
21774.70269730718
11921.22970808169
25222.21183361365
28781.06763226237
29705.94423667161
62970.6884814982
61441.20826669497
59797.22758114972
58059.12811604849
55673.09494566698
50272.29358698089
40858.15504256538
34030.30105020015
29397.24911187164
27511.32048161875
26409.34156457921
25440.83641771498
24632.04726471876
23934.96263387738
23314.66517927122
22858.02645900846
22483.66334569653
21217.54969272457
14721.14749942091
18819.40962831287
44173.19874511373
43099.80970753558
41412.87812545061
40310.94253209787
41269.9908260132
42059.21470937123
42526.595729304
42822.27678771532
42993.60043945958
43318.20253009522
43464.84771150177
43545.90037948301
43368.1047107679
42525.45075590857
41379.18007937777
34237.31012010012
22688.56432355871
12321.83448238267
26723.57494096549
29381.01529446768
31191.01811155654
64346.1918589461
62955.26130613221
61448.07518953463
59800.39383515091
58063.30919323104
55687.01390603147
50264.04897826794
40819.77735667471
34061.18265515254
29450.96516060203
27534.24547142063
26437.92978216714
25482.70122859314
24682.08863637585
23996.8273527913
23384.10960982316
22931.35465330822
22578.95184518429
21518.06974509503
15567.59237338497
19564.42255902305
42538.54203004135
44186.55446550901
43079.49871992105
41432.03387541696
40311.4091301088
41263.23399102085
42057.2260487766
42524.17805952783
42836.49829698588
43009.88450024059
43314.12053418216
43506.02027288667
43537.71813597812
43385.54302469053
42573.1223042464
41461.41201550297
34879.74048401078
23619.21900919648
12894.94089718187
28283.91782584332
30239.97363978621
33040.33508982247
65731.39932888739
64339.798987857
62971.98326898829
61442.51682349837
59793.09435716922
58055.04505628515
55681.39346594675
50287.90145741331
40859.99561989962
34064.94950601573
29455.22179320978
27564.96368857632
26473.32250659627
25533.14282340023
24743.41527530156
24068.78868436377
23469.04648741311
23016.77196230619
22679.41277178329
21800.59043380072
16391.27696665411
20408.71989302557
40535.10773723361
42549.34345373498
44168.02618581466
43083.33848681013
41411.00357996902
40311.72002813037
41259.72290352978
42054.70562039765
42522.93717152141
42837.27850352355
42997.91917176823
43324.52237359559
43462.28452276857
43536.36567361727
43379.07015723233
42614.95657228232
41570.78206808445
35563.52734215475
24607.44446765012
13600.76354402901
29758.08183497794
31397.95438616316
35060.89555164642
66901.89613360562
65713.46179058343
64344.56580085096
62968.87616141667
61446.95171428704
59798.95226526315
58054.72891823773
55680.4736314541
50265.9924028938
40876.4592378764
34102.97219328892
29515.837032349
27599.02062659993
26515.40826807838
25592.48153170956
24814.54185792537
24155.48034352107
23570.54591638191
23119.29986536797
22794.63146269099
22065.15820535483
17174.62085658155
21355.0305593222
39543.75894160515
40533.10383795443
42548.14449811149
44172.41152790591
43088.24255893345
41435.09333257562
40312.37114255732
41262.45093525353
42055.09920299063
42532.07893676047
42833.09328522923
43011.66949061683
43306.60636763689
43460.29169934791
43536.8182528454
43393.84544603783
42672.06637164526
41700.52137609291
36249.68473082712
25677.38521066285
14422.17565346748
31288.9756547598
32831.5244552645
37025.77735777765
68120.60790749574
66886.67761182132
65731.88011023983
64342.7201911842
62972.01239072555
61445.91178028089
59795.25940263672
58057.86557729859
55681.88676847043
50302.06722512171
40897.3587629208
34136.1211157471
29532.7554562455
27644.29164069387
26566.557437024
25659.56918895804
24900.41801439812
24257.67398755229
23695.90403624343
23241.77117943152
22920.90538847892
22311.92344582179
17911.4705584825
22451.79807234965
41883.45256708217
39527.15611266378
40529.53590195638
42534.48486082592
44170.94320344381
43085.8459795147
41421.40538282159
40312.89148158074
41256.394174615
42052.43559087122
42523.52542009393
42850.50937014911
43005.79256093704
43275.80069909075
43456.48163376405
43535.28549444957
43406.66025244733
42740.35959024441
41829.00062856104
36956.77787801615
26807.72601590292
15334.09307221728
33016.16649091546
34461.32582756629
38863.77365004027
69157.70226709003
68115.4886216806
66906.46563789507
65730.78514907195
64344.53946982936
62968.51944089869
61447.7253297008
59794.95814351717
58060.273419308
55676.87526421566
50297.31883368752
40926.62905338909
34179.07006847575
29608.45981008499
27694.91065452176
26625.70866238562
25740.47688382625
25000.54909126145
24381.47028623006
23844.99285593453
23393.54989330468
23065.95934699647
22546.73807966099
18580.94874100431
23749.66563469291
45135.94650215336
41950.47548398031
39547.89033934645
40532.95021951575
42534.76023073692
44171.0528328392
43083.97314188385
41439.49708480478
40313.85831457011
41257.71375861524
42055.94294645525
42542.18179220041
42830.65034066287
42979.65652524275
43267.08741098546
43450.79019530126
43534.21353739198
43423.59460957399
42813.45501270329
41986.25442932788
37626.96081580501
28005.96445361953
16309.61934588114
34970.98739515517
36228.17814163146
40481.67136169875
70195.95494314731
69157.11717597494
68121.03158130727
66898.27413360785
65729.72272865257
64343.80504006678
62966.40589757504
61442.93065496531
59794.27957497037
58054.03142661197
55682.27184667651
50316.81507296558
40967.26921744805
34222.63974609787
29643.76049255878
27757.62368058241
26696.09006158415
25834.7868423928
25121.49224860273
24527.90137693944
24024.21600012257
23576.7776255504
23236.71271163465
22776.63352325594
19179.07302059871
25424.73651393314
47075.79498783751
45167.02777360475
41884.71305857909
39513.73703997357
40537.76076713372
42530.47943749058
44168.23648228285
43089.87710756382
41420.36222298342
40314.36213875355
41251.58606516033
42062.24007219011
42526.26230614628
42806.40465275391
42975.75428764722
43254.92073908609
43444.17209948412
43532.49277228904
43439.63329283742
42901.49993707277
42135.8702551412
38267.81299212574
29215.04073670828
17349.89481283339
37080.65268462539
38081.20082589627
41981.55767920559
71220.49171039878
70196.84026693783
69155.81519193429
68118.97576046818
66900.54672427592
65725.28193041658
64343.30816639047
62969.19991856596
61443.65191091494
59793.48757646042
58058.04700281122
55678.12754958805
50326.46785457374
41016.82170321461
34290.61845684362
29741.71069905565
27831.42315953844
26778.1738922344
25946.3420777137
25263.79046346218
24703.61144737046
24235.79475817269
23799.17486735067
23446.84425349228
23009.99068932614
19693.69684042498
27314.95683673037
37141.56104829245
47087.01945628141
45133.1834633668
41883.10716312445
39555.95878362743
40529.71781761153
42534.08900396268
44169.44060698055
43090.40900985621
41428.19882656541
40316.26174383517
41260.30771798141
42054.35496885906
42508.95615284505
42801.34035267687
42968.64916836393
43242.84698723944
43435.01644827363
43530.3748591543
43457.38200588183
42988.51915718253
42296.15579078773
38859.62430856609
30367.36789807104
18424.53216730671
39329.96525553371
39856.6738536452
43231.9178511658
72117.4835736987
71219.51329102689
70195.61584788312
69160.66045057138
68118.6635697255
66902.96809266854
65729.79985565921
64342.58184760935
62966.28218271799
61446.65515568099
59791.20080612432
58055.63296856961
55685.46745682976
50341.68913370569
41064.8343789994
34354.42280133352
29803.16082541628
27918.81095809263
26877.15581465788
26077.37798442971
25433.70838073879
24909.24954630117
24482.36383652477
24066.28724189724
23697.21168924361
23256.98769566029
20219.99171186551
29366.45274555331
27096.56196578849
37181.672570572
47074.39300445608
45141.7001559864
41903.28996400251
39523.46055038678
40532.4915758329
42525.9094149594
44167.8173617724
43093.07156021344
41429.08961463745
40317.29427181196
41241.194683312
42038.90939055882
42499.52360389499
42793.74560262803
42962.87492950728
43226.99530815507
43423.84638246965
43526.60238205017
43472.81275258905
43084.16166115034
42449.09610955766
39392.18259288087
31446.11419337539
19535.59154570295
42095.96138559189
41186.96888341466
43699.85442589311
73024.39775470403
72116.77466411793
71216.41249305656
70190.04990117309
69155.49697796599
68120.21183529473
66897.96934852167
65727.19555930104
64342.64949797929
62963.45742064322
61442.02409391249
59791.67350129416
58052.26389052439
55681.67160063372
50363.17623668892
41131.87852284458
34441.00519899526
29924.33956392217
28023.56422737286
26994.52013195404
26232.61453486173
25630.8399621902
25149.08214377111
24764.1298500917
24382.29928495716
23984.97319639655
23531.47164590047
20725.27105190864
31337.08041968687
24088.23732800359
27170.32900095636
37134.51094792971
47057.7788226984
45132.10732566823
41889.90981255958
39556.00357684231
40527.69641802139
42531.14756037428
44166.96191458627
43095.9447682031
41430.61215608496
40319.64423687137
41238.45963805587
42032.04468084838
42491.43346746791
42786.65806366695
42954.87586925264
43209.0431741204
43408.4663429749
43518.71365686428
43487.82561291355
43173.59683615392
42603.95936586655
39862.07656197464
32430.70328559011
20849.59766474523
44680.88076446075
42300.26675399496
42541.19483553785
73857.0278122435
73023.98639362009
72116.53485596116
71222.28043926875
70195.78713560094
69149.76847583243
68115.66226252544
66898.01382348144
65726.32916444365
64340.27646895665
62963.99425937823
61440.8222958721
59791.44797845146
58051.93095999456
55682.34398409593
50390.62338997552
41210.0748841075
34542.44723481563
30031.46080045431
28150.71179108926
27137.03896038743
26413.59089668387
25859.40677668043
25423.03440060772
25085.36322753921
24741.18853887471
24315.26478773716
23855.59852490784
21238.64051050418
31501.9495777843
25725.83277433148
24089.07356202506
27072.81555569823
37137.27374611126
47075.58276095457
45142.81779276874
41928.26417680241
39552.3474858395
40524.34129774044
42521.19736708141
44165.91423017707
43099.12972053453
41436.09041873913
40321.39839769856
41229.85197451179
42023.36500340152
42482.16037847292
42777.14357148566
42945.60419736149
43186.0920796309
43390.39903216615
43504.47332014145
43499.95819619262
43259.34732918244
42746.54369147355
40276.1215696152
33308.36582866679
22530.68889512652
44574.29411318102
41400.66865123701
43609.10958433537
39273.50035231478
74679.44051919719
73856.37109312316
73025.36231362047
72116.11871710385
71216.61663684848
70192.91349365443
69155.60731600654
68117.84073878441
66896.65251223791
65724.97448688754
64338.86596880687
62961.93456784295
61437.9030865957
59788.38976649914
58050.65853526104
55682.15956652937
50412.88487132896
41298.13054461874
34656.43033289439
30193.90375149116
28304.21173854323
27307.9669893264
26624.29702934585
26120.14823523741
25737.62141883258
25439.51396562826
25133.82540285786
24697.668401416
24209.95809480398
21398.60097618441
25241.2737260936
28130.00935660536
25753.56122663181
24089.20381784208
27096.97769184389
37132.49962685764
47052.45838804873
45147.96940552044
41898.94233816482
39556.05120422475
40522.88225738476
42518.68370820818
44163.52020296133
43104.89137636044
41439.09369987116
40324.58795499852
41221.33070542711
42014.13228604847
42470.35487528054
42766.26397447697
42933.37258833434
43160.57682406726
43366.77603302155
43482.59827814191
43508.32297420507
43328.41577034724
42884.08502268932
40637.21069218639
34044.24482963223
24145.87797218459
43006.86294156315
41750.8054593353
43304.85863444289
40600.56313319602
75447.01836557864
74678.68027353201
73856.08552516355
73022.62234590793
72116.74690343198
71220.28847423785
70192.54358129944
69150.74564358409
68113.4032278736
66893.81501494581
65723.00164830727
64337.16246545758
62960.52519962809
61437.04282474697
59786.96414806228
58047.17200619642
55683.43602896629
50449.91013873003
41400.1933593623
34792.56876212684
30366.64161398491
28491.03951455501
27510.68521126369
26870.90811846099
26419.80211288011
26085.03332465568
25831.31672435893
25558.16238506331
25110.80976133066
24581.28115134218
22872.37651443445
24468.53258952216
30125.35920770275
28145.06503216166
25724.32355397382
24089.83557570606
27114.45133307116
37121.56378079769
47069.16340747117
45143.92398972999
41953.50620215003
39559.24391020677
40521.24458277969
42511.68779135084
44161.83592283532
43109.52480330969
41446.15226566394
40328.20525085309
41210.71282004609
42002.45525075766
42456.51275590208
42751.67605585029
42919.39064027035
43129.393752806
43338.22613830622
43453.41169419943
43508.23692473564
43379.65215917953
43007.49893646486
40948.69612602852
34692.69830989379
25901.74698441591
41698.47194915111
36568.15937076153
42986.9310760333
44916.02609073215
42954.24560392545
34416.71211656807
43058.88610626724
76193.73695871643
75448.16991484328
74678.52506466018
73855.60190123825
73020.75215618375
72114.51894975793
71216.69169210321
70191.28977785578
69153.48217907042
68115.18659145017
66895.50870645355
65721.60938654434
64334.65168346466
62958.87080325968
61433.63263656507
59784.33046267812
58045.61446974623
55682.95658023191
50489.44486421073
41524.60309978048
34964.95013550398
30591.58086942856
28707.94764646835
27758.0378827347
27159.64094644049
26758.08341602295
26480.17129982432
26259.72640081795
26006.71533875106
25563.50224471228
25089.72386066445
23681.58746335032
23790.41197098581
31419.72050863309
30133.92500746403
28118.19765934132
25729.6227720562
24090.34434368928
27083.61991656006
37126.80656057119
47060.28950520137
45155.92232714681
41901.08949079715
39534.0224733927
40516.829913037
42505.54060899802
44158.84403585478
43116.09277087588
41453.44914956695
40332.24686524065
41196.50210425758
41988.45754608898
42438.47986933728
42734.90647315043
42901.47928040058
43094.66753626475
43298.22871038542
43421.92612456093
43490.3504681642
43406.05865095511
43111.23374455838
41167.96298583459
34874.67124423655
24637.1635700694
32002.53305538718
41799.22184238374
38101.11051940925
44396.91878115354
45225.47132673885
44436.19916678897
35726.38435192514
43808.31303288442
76900.69719657139
76191.29927878757
75446.25634101592
74674.35480970249
73854.98654107862
73021.76786417473
72112.62022101269
71216.05299997474
70189.78750675166
69150.05748486107
68109.79107494226
66890.60949773219
65719.60758923282
64333.05509440613
62955.74723201288
61432.63511491394
59781.77164172755
58040.46202813122
55683.15346305839
50536.61200830169
41681.97016756769
35168.03861010441
30847.35699936503
28975.91000171273
28053.80156740971
27498.95422117978
27154.90199477419
26915.95571590876
26714.35903302469
26419.78265296222
25493.11904948435
26286.19744022409
25150.78136765935
23460.88425738863
23698.5910135029
32674.34059284511
31417.95260851067
30123.95149886538
28140.91316799537
25740.43565253434
24090.92366001658
27086.6578411259
37116.79535321293
47059.17717491621
45153.78523590768
41918.10535776326
39573.14166959259
40511.41466978183
42498.55097175216
44155.25634508867
43124.99058330972
41461.27857415432
40338.21860022847
41181.3659076109
41969.78541234319
42417.56187760225
42712.94712598391
42880.20996190548
43053.9514163052
43246.21926693896
43379.2131661923
43462.72887710056
43427.8938011159
43184.77727038509
41452.64645964216
37400.28512167016
27921.06589812043
33469.21177939626
45083.25024134298
40738.14443497485
34284.5871641361
45487.94703132891
45438.26559277036
45884.81651304779
44142.84401311764
28579.34294412119
42039.75676816497
77612.86935937175
76897.44792692913
76194.35369501542
75445.62162937343
74679.13639100327
73856.27160645477
73021.93359332453
72112.91207332858
71214.64054196001
70188.6211420272
69150.42999837358
68111.65761188029
66889.72192750165
65716.33003135261
64329.17196063286
62951.29763321645
61427.11779392704
59778.72689968703
58037.38786368865
55682.05800073671
50592.0918045389
41859.04100340874
35405.7549555924
31156.36911734164
29297.57944916757
28410.88878739683
27908.38430127185
27598.36188059509
27401.58562957135
27130.84664168952
26990.5789846908
26014.36034210888
26788.02420617641
25578.84655552711
24124.21291257669
23741.36195340514
34000.43601342526
32676.39701823726
31420.28988837561
30126.59454328424
28125.41159989491
25738.72951393721
24091.37780928438
27084.41980359615
37127.17024702182
47057.16919389442
45160.98940813668
41924.09810503756
39571.95325571713
40507.20398965282
42487.50239236792
44151.26778668643
43134.31185845261
41472.50854329563
40344.5818584684
41161.45641429331
41948.3921542539
42390.80493917473
42686.77033441274
42852.87237768093
43009.70020024581
43178.59045900808
43324.540738368
43419.4733680941
43439.02646453266
43209.80808729786
40783.75420420242
42429.76601101861
36432.84212650023
33193.06988633634
27134.5802977506
44368.68458442318
42852.93174365777
34444.35827594886
44144.92294517269
44579.35146188178
44339.76990557045
44264.88079889295
34585.54571231388
41860.03072306328
78264.17370829725
77615.29123643713
76899.79567734803
76192.03609690421
75443.83632411451
74673.98134321533
73852.26728642182
73019.23097813463
72111.34770804546
71212.84007475142
70186.04742931468
69144.55064111862
68106.65664870913
66886.40803011804
65712.72484722947
64325.27602159265
62948.04060081052
61423.98829671201
59774.1983722557
58032.41512249271
55681.8758200381
50653.35169831994
42056.82967231296
35689.68781817429
31531.00729006369
29700.32894945408
28843.92724167873
28375.88391911896
28131.39459295163
27860.0717653579
27726.24347640661
27339.30734358425
25954.94850488316
26703.54014152031
27295.1328624593
25748.82334636305
23842.33221503425
25532.32011034117
23675.77321702758
35373.24935367577
33998.37729334305
32674.10888241034
31419.63641016307
30125.65947811896
28135.78256904466
25736.85222135446
24092.64673138105
27068.15924997956
37106.35554567741
47058.34032620046
45167.7604837438
41933.23041464522
39579.96968450458
40498.8009529912
42476.00176302873
44145.73098498056
43147.46355025552
41485.49510496701
40352.95976753702
41139.67890201582
41920.28958450226
42358.90991347166
42652.76176876717
42819.76648212493
42957.79385328545
43105.20964751195
43241.81442756803
43367.88343567151
43442.22313485984
43375.62219671716
41775.31184265257
42529.50935024984
37267.02084008857
35383.78770160882
29020.04853410146
44465.57432082557
40495.87357336533
30672.13628180101
44196.33694524426
44433.00158801774
44966.8398829025
44326.29799565003
43493.87745189888
30393.26308993125
78919.30454546964
78261.29541772675
77610.69643355129
76899.3225470929
76191.98125785016
75446.96152476453
74677.094858098
73854.0253639374
73018.66095015637
72111.48772808895
71211.41092283074
70186.48536756718
69144.83629439931
68103.97279961959
66883.16553303927
65708.60252488393
64320.67643767548
62942.23599454032
61417.5586431022
59769.11762622736
58026.49185508563
55683.96341797771
50728.50133963853
42299.62538002776
36019.93626640312
31959.61414000062
30180.73665691499
29356.79721552504
28963.87621521457
28671.02271716606
27888.93433416224
28529.91531254653
28030.51947594426
27958.17778404041
26390.68856397637
27090.93503341247
27646.49808744854
26214.71654766193
24522.93641942567
26071.9867586605
23660.41938288693
36742.69459973939
35370.96404013565
34001.13611496423
32674.47839519761
31420.07162423902
30130.19550122512
28135.8934027922
25747.13223192761
24093.28893450102
27067.95170539795
37100.17045768555
47047.06181471083
45175.02033058978
41971.55459581611
39589.29725679675
40491.61837297885
42460.00648113737
44139.08643787326
43161.14916551414
41501.94254833274
40362.40834637023
41113.0539383038
41886.94352121976
42318.10884156235
42611.91475371293
42775.16302771964
42902.9830126872
43017.22952984857
43160.56842391856
43316.36071118573
43417.64335992916
43355.78182101027
43373.61069890005
41924.6773987346
43030.99722112414
39889.15290098223
35914.07579337846
34398.97193129382
44524.60424037893
42668.67473071119
30342.19072465391
44038.21147487647
43598.1333097449
44151.58596407875
44298.37567003657
43401.34023079545
28972.9487344526
79533.33589185188
78918.6607844299
78263.56014601608
77611.88767341053
76899.93236528982
76188.72257285661
75443.53457216162
74674.66748263482
73850.48262243411
73016.63329499357
72108.05191260636
71208.92665827506
70181.77126659603
69140.26152520451
68100.32051147938
66879.09823281658
65703.95069107079
64315.14172909006
62936.58737631007
61411.4453306577
59763.09093950723
58018.76125538166
55682.69132007236
50814.82845971923
42573.8254300584
36407.06615647308
32477.29494931592
30743.57178367878
30036.51970089609
29406.84482844124
29265.76191167395
28331.31147390737
28747.55758439047
28387.74212104091
28013.87778235061
26960.13441482875
27625.79714143289
27796.34453694772
26577.66926623084
25923.96164272252
24212.33525500329
26555.59353178863
24681.66031950403
38255.63776143621
36747.55693167933
35378.48253249378
33995.60348333676
32674.42417146601
31418.63809206202
30122.70625981108
28142.81151236835
25735.9386285285
24095.11924319799
27045.23954368968
37090.4698586513
47056.19732141616
45186.70606710426
41954.51819866302
39571.76349196538
40482.00348633582
42442.19548172148
44131.15551804235
43179.32390170047
41520.79924513823
40374.5047999884
41083.38418863495
41844.26599411725
42269.4257480748
42557.56526217053
42720.80339190487
42831.83201713741
42939.28641317532
43085.59028610437
43143.749975456
43396.0641205232
43334.44997194374
43390.01400774276
42732.03305599019
43156.95251326561
40377.27797048906
38448.512582979
36723.6036156089
44319.47191721373
39515.99732759918
33599.14771015094
30077.39028779857
44753.7108747919
44361.39157659337
44468.09925771267
44203.61262259482
44101.31149920991
43790.40235950261
38003.93388045533
80159.38017842239
79531.97012768178
78918.357598658
78265.47350073041
77610.96400376724
76898.13922923274
76191.29815945412
75442.74091028728
74674.43005941575
73850.72591431935
73015.82299528951
72106.07545928877
71206.50533916309
70178.97627005474
69137.43272369067
68095.58250218145
66874.13121807024
65697.57551061554
64308.54143294001
62929.43528840038
61403.3668245075
59756.20626369185
58010.5699388158
55683.61983166598
50911.49744936023
42891.98160163436
36875.19989850786
33060.47201999294
31473.45146872816
30510.33647381931
30144.81693418082
29754.45551114913
29473.74724036805
28917.85954390972
28410.04631595292
27336.85827952234
27914.75353362594
28250.10640222454
27177.91471475308
26489.37136041776