/*--------------------------------*- C++ -*----------------------------------*\
| =========                 |                                                 |
| \\      /  F ield         | OpenFOAM: The Open Source CFD Toolbox           |
|  \\    /   O peration     | Version:  v1912                                 |
|   \\  /    A nd           | Website:  www.openfoam.com                      |
|    \\/     M anipulation  |                                                 |
\*---------------------------------------------------------------------------*/
FoamFile
{
    version     2.0;
    format      ascii;
    class       volScalarField;
    location    "5000";
    object      rDeltaTau;
}
// * * * * * * * * * * * * * * * * * * * * * * * * * * * * * * * * * * * * * //

dimensions      [0 0 -1 0 0 0 0];


internalField   nonuniform List<scalar> 
18230
(
3431.885963829948
3353.3207542873
3494.188506131905
3364.594082186224
3287.569366948333
3287.569366948333
3480.91285116935
3425.675006011671
3298.62164920218
3223.107222498366
3223.107222498366
3223.107222498366
3412.659658009167
3412.659658009167
3358.50490785458
3233.94279333547
3159.909041665065
3159.909041665065
3159.909041665065
3159.909041665065
3345.744762754085
3345.744762754085
3345.744762754085
3292.651870445667
3170.532150328892
3097.950040848103
3097.950040848103
3097.950040848103
3097.950040848103
3097.950040848103
3280.141924268711
3280.141924268711
3280.141924268711
3280.141924268711
3228.090069064379
3108.36485326362
3037.2059224001
3037.2059224001
3037.2059224001
3037.2059224001
3037.2059224001
3037.2059224001
3215.825415949716
3215.825415949716
3215.825415949716
3215.825415949716
3215.825415949716
3164.794185357234
3047.41652280747
2977.652865098138
2977.652865098138
2977.652865098138
2977.652865098138
2977.652865098138
2977.652865098138
2977.652865098138
3127.182869091315
3152.770015636977
3152.770015636977
3152.770015636977
3152.770015636977
3152.770015636977
3102.739397409053
2987.663257654383
2919.267514802096
2919.267514802096
2919.267514802096
2919.267514802096
2919.267514802096
2919.267514802096
2919.267514802096
2919.267514802096
3189.726526473142
3065.865557932662
3090.950995722526
3090.950995722526
3090.950995722526
3090.950995722526
3090.950995722526
3041.901370008876
2929.081625151355
2949.734432130331
2862.026975296172
2862.026975296172
2862.026975296172
2862.026975296172
2862.026975296172
2862.026975296172
2862.026975296172
2862.026975296172
3253.521057002605
3127.182869091315
3005.750546992806
3030.344113453457
3030.344113453457
3030.344113453457
3030.344113453457
3030.344113453457
2982.256245106741
2871.648652109172
3008.729120772938
2891.89650208856
2805.908799309973
2805.908799309973
2805.908799309973
2805.908799309973
2805.908799309973
2805.908799309973
2805.908799309973
2805.908799309973
3249.29676956792
3189.726526473142
3065.865557932662
2946.814261757652
2970.925601424958
2970.925601424958
2970.925601424958
2970.925601424958
2970.925601424958
2923.780632457589
2815.341815793305
3068.903703188397
2949.734432130331
2835.192649106431
2750.89097971566
2750.89097971566
2750.89097971566
2750.89097971566
2750.89097971566
2750.89097971566
2750.89097971566
2750.89097971566
3185.585068203844
3185.585068203844
3127.182869091315
3005.750546992806
2889.033589958482
2912.672158259763
2912.672158259763
2912.672158259763
2912.672158259763
2912.672158259763
2866.451600448617
2760.139035091476
3130.281777252165
3008.729120772938
2891.89650208856
2779.600636378854
2696.951940897706
2696.951940897706
2696.951940897706
2696.951940897706
2696.951940897706
2696.951940897706
2696.951940897706
2696.951940897706
3187.516327318301
3123.122615886121
3123.122615886121
3065.865557932662
2946.814261757652
2832.385872508316
2855.560939470356
2855.560939470356
2855.560939470356
2855.560939470356
2855.560939470356
2810.246667106487
2706.018661854388
3192.887412797208
3068.903703188397
2949.734432130331
2835.192649106431
2725.098663116523
2644.070530291868
2644.070530291868
2644.070530291868
2644.070530291868
2644.070530291868
2644.070530291868
2644.070530291868
2644.070530291868
3179.7031896648
3125.016007174805
3061.884917535413
3061.884917535413
3005.750546992806
2889.033589958482
2776.848894615996
2799.569548500348
2799.569548500348
2799.569548500348
2799.569548500348
2799.569548500348
2755.14379128087
2652.959472406263
3256.745161053152
3130.281777252165
3008.729120772938
2891.89650208856
2779.600636378854
2671.665355996592
2592.226010090067
2592.226010090067
2592.226010090067
2592.226010090067
2592.226010090067
2592.226010090067
2592.226010090067
2592.226010090067
3117.356068298823
3117.356068298823
3063.741183504711
3001.847958368051
3001.847958368051
2946.814261757652
2832.385872508316
2722.400877074506
2744.676027941518
2744.676027941518
2744.676027941518
2744.676027941518
2744.676027941518
2701.121364000853
2600.940659221826
3241.718517715891
3192.887412797208
3068.903703188397
2949.734432130331
2835.192649106431
2725.098663116523
2619.279760780972
2541.398049107908
2541.398049107908
2541.398049107908
2541.398049107908
2541.398049107908
2541.398049107908
2541.398049107908
2541.398049107908
3157.87524136774
3056.23143950865
3056.23143950865
3003.667826965403
2942.988194478482
2942.988194478482
2889.033589958482
2776.848894615996
2669.020467720104
2690.858850923057
2690.858850923057
2690.858850923057
2690.858850923057
2690.858850923057
2648.158200000836
2549.941822766496
3306.552888070209
3178.155409525384
3130.281777252165
3008.729120772938
2891.89650208856
2779.600636378854
2671.665355996592
2567.921334098992
2491.566714811675
2491.566714811675
2491.566714811675
2491.566714811675
2491.566714811675
2491.566714811675
2491.566714811675
2491.566714811675
3141.96097389326
3095.956118987981
2996.305332851618
2996.305332851618
2944.772379377846
2885.282543606354
2885.282543606354
2832.385872508316
2722.400877074506
2616.686733058925
2638.096912669663
2638.096912669663
2638.096912669663
2638.096912669663
2638.096912669663
2596.233529412584
2499.942963496565
3372.683945831613
3241.718517715891
3115.838636789592
3068.903703188397
2949.734432130331
2835.192649106431
2725.098663116523
2619.279760780972
2517.569935391169
2442.712465501641
2442.712465501641
2442.712465501641
2442.712465501641
2442.712465501641
2442.712465501641
2442.712465501641
2442.712465501641
3217.304238729701
3080.353895973784
3035.25109704704
2937.554247893743
2937.554247893743
2887.031744488084
2828.708376084661
2828.708376084661
2776.848894615996
2669.020467720104
2565.37915005777
2586.36952222516
2586.36952222516
2586.36952222516
2586.36952222516
2586.36952222516
2545.32698962018
2450.92447401624
3386.633603249494
3306.552888070209
3178.155409525384
3054.743761558424
3008.729120772938
2891.89650208856
2779.600636378854
2671.665355996592
2567.921334098992
2468.20581901095
2394.816142648668
2394.816142648668
2394.816142648668
2394.816142648668
2394.816142648668
2394.816142648668
2394.816142648668
2394.816142648668
3281.650323504295
3154.219841891864
3019.954799974298
2975.736369653961
2879.955144993865
2879.955144993865
2830.423278909886
2773.243505965354
2773.243505965354
2722.400877074506
2616.686733058925
2515.077598095853
2535.656394338392
2535.656394338392
2535.656394338392
2535.656394338392
2535.656394338392
2495.418617274687
2402.867131388471
3320.229022793621
3320.229022793621
3241.718517715891
3115.838636789592
2994.846825057278
2949.734432130331
2835.192649106431
2725.098663116523
2619.279760780972
2517.569935391169
2419.809626481323
2347.858963381047
2347.858963381047
2347.858963381047
2347.858963381047
2347.858963381047
2347.858963381047
2347.858963381047
2347.858963381047
3300.032744423603
3217.304238729701
3092.372394011631
2960.739999974802
2917.388597699961
2823.485436268496
2823.485436268496
2774.924783244987
2718.866182318975
2718.866182318975
2669.020467720104
2565.37915005777
2465.762351074366
2485.937641508227
2485.937641508227
2485.937641508227
2485.937641508227
2485.937641508227
2446.488840465379
2355.75208959654
3255.126492934923
3255.126492934923
3255.126492934923
3178.155409525384
3054.743761558424
2936.124338291449
2891.89650208856
2779.600636378854
2671.665355996592
2567.921334098992
2468.20581901095
2372.362378903258
2301.822513118674
2301.822513118674
2301.822513118674
2301.822513118674
2301.822513118674
2301.822513118674
2301.822513118674
2301.822513118674
3309.729708232201
3235.32622002314
3154.219841891864
3031.737641187874
2902.6862744851
2860.184899705845
2768.122976733819
2768.122976733819
2720.514493377438
2665.555080704877
2665.555080704877
2616.686733058925
2515.077598095853
2417.41406968075
2437.193766184537
2437.193766184537
2437.193766184537
2437.193766184537
2437.193766184537
2398.51847104449
2309.56087215347
3269.729625191419
3191.300483269532
3191.300483269532
3191.300483269532
3115.838636789592
2994.846825057278
2878.553272834753
2835.192649106431
2725.098663116523
2619.279760780972
2517.569935391169
2419.809626481323
2325.845469512998
2256.688738351641
2256.688738351641
2256.688738351641
2256.688738351641
2256.688738351641
2256.688738351641
2256.688738351641
2256.688738351641
3244.833047286472
3244.833047286472
3171.888451003078
3092.372394011631
2972.29180508615
2845.770857338333
2804.102842848867
2713.846055621391
2713.846055621391
2667.171071938665
2613.289294808703
2613.289294808703
2565.37915005777
2465.762351074366
2370.013793804657
2389.405653122095
2389.405653122095
2389.405653122095
2389.405653122095
2389.405653122095
2351.488697102441
2264.275364856343
3335.124217695247
3205.61727959943
3128.725963989737
3128.725963989737
3128.725963989737
3054.743761558424
2936.124338291449
2822.111051798778
2779.600636378854
2671.665355996592
2567.921334098992
2468.20581901095
2372.362378903258
2280.240656385292
2212.439939560432
2212.439939560432
2212.439939560432
2212.439939560432
2212.439939560432
2212.439939560432
2212.439939560432
2212.439939560432
3181.208869888698
3181.208869888698
3181.208869888698
3109.69455980694
3031.737641187874
2914.011573613873
2789.971428763071
2749.120434165556
2660.633387864109
2660.633387864109
2614.873599939867
2562.048328243826
2562.048328243826
2515.077598095853
2417.41406968075
2323.542935102605
2342.554561884407
2342.554561884407
2342.554561884407
2342.554561884407
2342.554561884407
2305.381075590628
2219.87780868269
3342.565392132263
3269.729625191419
3142.762038822971
3067.37839606837
3067.37839606837
3067.37839606837
2994.846825057278
2878.553272834753
2766.775540979194
2725.098663116523
2619.279760780972
2517.569935391169
2419.809626481323
2325.845469512998
2235.530055279698
2169.058764274934
2169.058764274934
2169.058764274934
2169.058764274934
2169.058764274934
2169.058764274934
2169.058764274934
2169.058764274934
3118.832225381076
3118.832225381076
3118.832225381076
3118.832225381076
3048.72015667347
2972.29180508615
2856.874091778307
2735.266106630462
2695.216111927016
2608.464105749126
2608.464105749126
2563.601568568497
2511.812086513555
2511.812086513555
2465.762351074366
2370.013793804657
2277.983269708436
2296.622119494516
2296.622119494516
2296.622119494516
2296.622119494516
2296.622119494516
2260.177525088851
2176.350792826166
3392.439688447233
3277.024894247317
3205.61727959943
3081.139253748011
3007.233721635657
3007.233721635657
3007.233721635657
2936.124338291449
2822.111051798778
2712.52504017568
2671.665355996592
2567.921334098992
2468.20581901095
2372.362378903258
2280.240656385292
2191.696132627155
2126.528200269543
2126.528200269543
2126.528200269543
2126.528200269543
2126.528200269543
2126.528200269543
2126.528200269543
2126.528200269543
3198.351131775552
3057.678652334389
3057.678652334389
3057.678652334389
3057.678652334389
2988.941330072029
2914.011573613873
2800.85695272383
2681.633437873002
2642.368737183349
2557.317750734438
2557.317750734438
2513.334871145586
2462.560869130936
2462.560869130936
2417.41406968075
2323.542935102605
2233.316931086702
2251.590313229918
2251.590313229918
2251.590313229918
2251.590313229918
2251.590313229918
2215.86031871456
2133.67724786879
3460.288482216178
3325.921263183562
3212.769504164036
3142.762038822971
3020.724758576481
2948.268354544762
2948.268354544762
2948.268354544762
2878.553272834753
2766.775540979194
2659.338274682039
2619.279760780972
2517.569935391169
2419.809626481323
2325.845469512998
2235.530055279698
2148.721698654073
2084.831568891709
2084.831568891709
2084.831568891709
2084.831568891709
2084.831568891709
2084.831568891709
2084.831568891709
2084.831568891709
3262.318154411063
3135.638364485836
2997.724168955283
2997.724168955283
2997.724168955283
2997.724168955283
2930.334637325519
2856.874091778307
2745.938188944931
2629.052390071571
2590.557585473871
2507.174265425919
2507.174265425919
2464.05379524077
2414.275361893075
2414.275361893075
2370.013793804657
2277.983269708436
2189.526403026178
2207.441483558743
2207.441483558743
2207.441483558743
2207.441483558743
2207.441483558743
2172.412077171137
2091.840439087049
3364.817718782508
3392.439688447233
3260.707120768197
3149.774023690231
3081.139253748011
2961.494861349491
2890.459171122315
2890.459171122315
2890.459171122315
2822.111051798778
2712.52504017568
2607.194386943176
2567.921334098992
2468.20581901095
2372.362378903258
2280.240656385292
2191.696132627155
2106.589900641248
2043.952518521283
2043.952518521283
2043.952518521283
2043.952518521283
2043.952518521283
2043.952518521283
2043.952518521283
2043.952518521283
3327.564517499285
3198.351131775552
3074.155259299839
2938.94526368165
2938.94526368165
2938.94526368165
2938.94526368165
2872.877095417175
2800.85695272383
2692.096263671501
2577.502343207422
2539.762338699874
2458.013985711686
2458.013985711686
2415.739014941932
2366.936629306936
2366.936629306936
2323.542935102605
2233.316931086702
2146.594512770763
2164.158317214454
2164.158317214454
2164.158317214454
2164.158317214454
2164.158317214454
2129.815761932487
2050.823959889264
3272.356453385002
3298.840900767165
3325.921263183562
3196.771687027644
3088.013748715913
3020.724758576481
2903.426334656363
2833.783501100309
2833.783501100309
2833.783501100309
2766.775540979194
2659.338274682039
2556.072928375662
2517.569935391169
2419.809626481323
2325.845469512998
2235.530055279698
2148.721698654073
2065.284216314949
2003.875018158121
2003.875018158121
2003.875018158121
2003.875018158121
2003.875018158121
2003.875018158121
2003.875018158121
2003.875018158121
3262.318154411063
3262.318154411063
3135.638364485836
3013.87770519592
2881.318885962402
2881.318885962402
2881.318885962402
2881.318885962402
2816.546171977623
2745.938188944931
2639.310062423041
2526.963081575904
2489.963077156739
2409.817633050672
2409.817633050672
2368.371583276403
2320.526107163663
2320.526107163663
2277.983269708436
2189.526403026178
2104.504424285061
2121.723840406328
2121.723840406328
2121.723840406328
2121.723840406328
2121.723840406328
2088.054668561262
2010.611725381631
3277.965466360251
3208.192601357845
3234.157745850162
3260.707120768197
3134.089889242789
3027.464459525405
2961.494861349491
2846.496406525846
2778.219118725793
2778.219118725793
2778.219118725793
2712.52504017568
2607.194386943176
2505.953851348689
2468.20581901095
2372.362378903258
2280.240656385292
2191.696132627155
2106.589900641248
2024.788447367597
1964.583351135412
1964.583351135412
1964.583351135412
1964.583351135412
1964.583351135412
1964.583351135412
1964.583351135412
1964.583351135412
3198.351131775552
3198.351131775552
3198.351131775552
3074.155259299839
2954.782063917568
2824.822437218041
2824.822437218041
2824.822437218041
2824.822437218041
2761.31977644865
2692.096263671501
2587.558884728471
2477.414785858729
2441.140271722293
2362.566306912423
2362.566306912423
2321.932924780787
2275.025595258493
2275.025595258493
2233.316931086702
2146.594512770763
2063.239631652021
2080.121412163066
2080.121412163066
2080.121412163066
2080.121412163066
2080.121412163066
2047.1124201581
1971.187966060422
3283.807971930289
3213.691633686521
3145.286864076319
3170.742888088394
3196.771687027644
3072.637146316459
2968.102411299416
2903.426334656363
2790.682751495928
2723.744234044895
2723.744234044895
2723.744234044895
2659.338274682039
2556.072928375662
2456.817501322244
2419.809626481323
2325.845469512998
2235.530055279698
2148.721698654073
2065.284216314949
1985.086713105488
1926.062108956287
1926.062108956287
1926.062108956287
1926.062108956287
1926.062108956287
1926.062108956287
1926.062108956287
1926.062108956287
3135.638364485836
3135.638364485836
3135.638364485836
3135.638364485836
3013.87770519592
2896.845160703499
2769.433761978471
2769.433761978471
2769.433761978471
2769.433761978471
2707.176251420245
2639.310062423041
2536.822436008305
2428.838025351695
2393.274776198326
2316.241477365121
2316.241477365121
2276.404828216458
2230.417250253424
2230.417250253424
2189.526403026178
2104.504424285061
2022.78395260002
2039.334717806928
2039.334717806928
2039.334717806928
2039.334717806928
2039.334717806928
2006.972960939313
1932.537221627865
3289.560890778558
3219.419580323812
3150.678072241687
3083.614572623842
3108.57145891019
3134.089889242789
3012.389359133783
2909.904324803349
2846.496406525846
2735.963481858753
2670.33748435774
2670.33748435774
2670.33748435774
2607.194386943176
2505.953851348689
2408.644609139455
2372.362378903258
2280.240656385292
2191.696132627155
2106.589900641248
2024.788447367597
1946.163444221066
1888.296185251261
1888.296185251261
1888.296185251261
1888.296185251261
1888.296185251261
1888.296185251261
1888.296185251261
1888.296185251261
3074.155259299839
3074.155259299839
3074.155259299839
3074.155259299839
3074.155259299839
2954.782063917568
2840.044275199508
2715.13113919458
2715.13113919458
2715.13113919458
2715.13113919458
2654.094364137495
2587.558884728471
2487.080819615985
2381.213750344799
2346.347819802281
2270.824977808942
2270.824977808942
2231.7694394279
2186.683578679828
2186.683578679828
2146.594512770763
2063.239631652021
1983.121522156883
1999.347762555811
1999.347762555811
1999.347762555811
1999.347762555811
1999.347762555811
1967.620549940503
1929.039754843631
1894.644334929279
3367.105198270735
3225.059696841723
3156.293706199816
3088.900070825183
3023.15154178808
3047.619077362931
3072.637146316459
2953.322901111552
2852.847377258186
2790.682751495928
2682.317139077209
2617.977925840922
2617.977925840922
2617.977925840922
2556.072928375662
2456.817501322244
2361.416283470053
2325.845469512998
2235.530055279698
2148.721698654073
2065.284216314949
1985.086713105488
1908.00337668732
1851.270769854178
1851.270769854178
1851.270769854178
1851.270769854178
1851.270769854178
1851.270769854178
1851.270769854178
1851.270769854178
3078.819266184893
3013.87770519592
3013.87770519592
3013.87770519592
3013.87770519592
3013.87770519592
2896.845160703499
2784.357132548538
2661.893273720176
2661.893273720176
2661.893273720176
2661.893273720176
2602.053298174015
2536.822436008305
2438.31452903528
2334.523284651764
2300.340999806157
2226.298997851904
2226.298997851904
2188.009254341078
2143.807430078263
2143.807430078263
2104.504424285061
2022.78395260002
1944.236786428316
1960.144865250795
1960.144865250795
1960.144865250795
1960.144865250795
1960.144865250795
1929.039754843631
1891.215445925128
1857.494446009097
3434.44730223615
3301.083527716407
3161.823232197768
3094.405594313545
3028.333402769787
2963.874060576549
2987.861840551894
3012.389359133783
2895.414608932894
2796.909193390378
2735.963481858753
2629.722685369812
2566.645025334237
2566.645025334237
2566.645025334237
2505.953851348689
2408.644609139455
2315.114003402013
2280.240656385292
2191.696132627155
2106.589900641248
2024.788447367597
1946.163444221066
1870.591545771882
1814.971342994292
1814.971342994292
1814.971342994292
1814.971342994292
1814.971342994292
1814.971342994292
1814.971342994292
1814.971342994292
3021.972831492055
3018.450260965581
2954.782063917568
2954.782063917568
2954.782063917568
2954.782063917568
2954.782063917568
2840.044275199508
2729.761894655429
2609.699287960957
2609.699287960957
2609.699287960957
2609.699287960957
2551.032645268642
2487.080819615985
2390.504440230666
2288.748318286043
2255.236274319762
2182.646076325396
2182.646076325396
2145.107112099096
2101.771990272807
2101.771990272807
2063.239631652021
1983.121522156883
1906.114496498349
1921.710652206662
1921.710652206662
1921.710652206662
1921.710652206662
1921.710652206662
1921.710652206662
1891.215445925128
1854.132790122675
1854.132790122675
1821.072986283429
1821.072986283429
3462.774372710737
3367.105198270735
3236.356399721968
3099.826698233105
3033.730974817201
2968.954316440968
2905.758882918185
2929.276314266562
2953.322901111552
2838.641773463622
2742.067836657233
2682.317139077209
2578.1594954606
2516.318652288468
2516.318652288468
2516.318652288468
2456.817501322244
2361.416283470053
2269.719611178444
2235.530055279698
2148.721698654073
2065.284216314949
1985.086713105488
1908.00337668732
1833.913280168512
1779.383669602247
1779.383669602247
1779.383669602247
1779.383669602247
1779.383669602247
1779.383669602247
1779.383669602247
1779.383669602247
3038.691932304036
2962.718462247113
2959.264961730962
2896.845160703499
2896.845160703499
2896.845160703499
2896.845160703499
2896.845160703499
2784.357132548538
2676.23715162297
2558.528713687213
2558.528713687213
2558.528713687213
2558.528713687213
2501.012397322198
2438.31452903528
2343.631804147712
2243.870900280434
2211.015955215453
2139.849094436663
2139.849094436663
2103.046188332447
2060.560774777261
2060.560774777261
2022.78395260002
1944.236786428316
1868.739702449362
1884.030051183002
1884.030051183002
1884.030051183002
1884.030051183002
1884.030051183002
1884.030051183002
1884.030051183002
1854.132790122675
1817.777245218309
1817.777245218309
1785.365672826891
1785.365672826891
3394.876835990918
3394.876835990918
3301.083527716407
3172.898431099969
3039.045782581476
2974.246053742354
2910.739525922517
2848.783218547241
2871.839523790747
2895.414608932894
2782.982130846688
2688.301800644346
2629.722685369812
2527.607348490784
2466.979070871047
2466.979070871047
2466.979070871047
2408.644609139455
2315.114003402013
2225.215305076906
2191.696132627155
2106.589900641248
2024.788447367597
1946.163444221066
1870.591545771882
1797.954196243639
1744.493793727693
1744.493793727693
1744.493793727693
1744.493793727693
1744.493793727693
1744.493793727693
1744.493793727693
1744.493793727693
1744.493793727693
3055.407378083652
2979.109737552976
2904.625943379522
2901.240158559766
2840.044275199508
2840.044275199508
2840.044275199508
2840.044275199508
2840.044275199508
2729.761894655429
2623.761913355852
2508.361484007071
2508.361484007071
2508.361484007071
2508.361484007071
2451.972938551174
2390.504440230666
2297.678239360502
2199.873431647484
2167.662701191621
2097.891269055552
2097.891269055552
2061.809988561223
2020.157622330649
2020.157622330649
1983.121522156883
1906.114496498349
1832.097747499374
1847.088285473531
1847.088285473531
1847.088285473531
1847.088285473531
1847.088285473531
1847.088285473531
1847.088285473531
1847.088285473531
1817.777245218309
1782.134554135597
1782.134554135597
1782.134554135597
1750.358502771462
1750.358502771462
3337.41616566548
3328.310623520508
3328.310623520508
3236.356399721968
3110.684736372518
2979.456649589682
2915.927503668975
2853.666201884821
2792.924724065922
2815.528944892889
2838.641773463622
2728.413853771262
2635.590000631712
2578.1594954606
2478.046420089004
2418.606932226516
2418.606932226516
2418.606932226516
2361.416283470053
2269.719611178444
2181.583632428339
2148.721698654073
2065.284216314949
1985.086713105488
1908.00337668732
1833.913280168512
1762.700192395725
1710.288033066366
1710.288033066366
1710.288033066366
1710.288033066366
1710.288033066366
1710.288033066366
1710.288033066366
1710.288033066366
1710.288033066366
3072.229690234989
2995.497429493776
2920.695821130369
2847.672493509335
2844.353096627222
2784.357132548538
2784.357132548538
2784.357132548538
2784.357132548538
2784.357132548538
2676.23715162297
2572.315601329267
2459.177925497128
2459.177925497128
2459.177925497128
2459.177925497128
2403.895037795269
2343.631804147712
2252.625724863237
2156.738658477926
2125.159510972177
2056.756146132894
2056.756146132894
2021.382341726689
1980.546688559459
1980.546688559459
1944.236786428316
1868.739702449362
1796.174262254288
1810.870868111305
1810.870868111305
1810.870868111305
1810.870868111305
1810.870868111305
1810.870868111305
1810.870868111305
1810.870868111305
1810.870868111305
1782.134554135597
1747.190739348624
1747.190739348624
1747.190739348624
1716.037747815158
1716.037747815158
3339.9305548679
3271.976633005373
3263.049630902458
3263.049630902458
3172.898431099969
3049.690918012273
2921.035930970276
2858.752454577426
2797.711962632177
2738.161494182277
2760.322494993029
2782.982130846688
2674.915542913002
2583.911765325208
2527.607348490784
2429.457274597063
2371.183266888741
2371.183266888741
2371.183266888741
2315.114003402013
2225.215305076906
2138.807482772881
2106.589900641248
2024.788447367597
1946.163444221066
1870.591545771882
1797.954196243639
1728.13744352522
1676.752973594476
1676.752973594476
1676.752973594476
1676.752973594476
1676.752973594476
1676.752973594476
1676.752973594476
1676.752973594476
1676.752973594476
1676.752973594476
1676.752973594476
3040.882217479736
3011.989892387244
2936.762185778212
2863.427275618008
2791.835777950329
2788.58146728159
2729.761894655429
2729.761894655429
2729.761894655429
2729.761894655429
2729.761894655429
2623.761913355852
2521.878040518889
2410.958750487381
2410.958750487381
2410.958750487381
2410.958750487381
2356.759840975754
2297.678239360502
2208.456593003174
2114.449665174437
2083.489716639389
2016.427594247935
2016.427594247935
1981.747393849695
1941.712439764176
1941.712439764176
1906.114496498349
1832.097747499374
1760.955159072832
1775.363596187554
1775.363596187554
1775.363596187554
1775.363596187554
1775.363596187554
1775.363596187554
1775.363596187554
1775.363596187554
1775.363596187554
1747.190739348624
1747.190739348624
1712.932097400612
1712.932097400612
1712.932097400612
1682.38994883839
3274.441720458726
3274.441720458726
3207.82022843664
3199.068265590645
3199.068265590645
3110.684736372518
2989.893056874777
2863.760716637526
2802.698484879829
2742.854865325663
2684.472053119879
2706.198524502969
2728.413853771262
2622.466218542159
2533.246828750204
2478.046420089004
2381.8208574481
2324.689477341904
2324.689477341904
2324.689477341904
2269.719611178444
2181.583632428339
2096.870081149884
2065.284216314949
1985.086713105488
1908.00337668732
1833.913280168512
1762.700192395725
1694.252395612961
1643.87546430831
1643.87546430831
1643.87546430831
1643.87546430831
1643.87546430831
1643.87546430831
1643.87546430831
1643.87546430831
1643.87546430831
1643.87546430831
1643.87546430831
1643.87546430831
2975.949462342777
2981.257075960526
2952.931267046317
2879.178613508051
2807.281642762754
2737.093899951302
2733.903399295677
2676.23715162297
2676.23715162297
2676.23715162297
2676.23715162297
2676.23715162297
2572.315601329267
2472.429451489107
2363.685049497432
2363.685049497432
2363.685049497432
2363.685049497432
2310.548863701719
2252.625724863237
2165.153522552132
2072.989867818075
2042.63697709744
1976.889798282289
1976.889798282289
1942.889601813426
1903.639646827623
1903.639646827623
1868.739702449362
1796.174262254288
1726.426626541992
1760.955159072832
1740.552545281916
1740.552545281916
1740.552545281916
1740.552545281916
1740.552545281916
1740.552545281916
1740.552545281916
1740.552545281916
1740.552545281916
1712.932097400612
1712.932097400612
1679.345193530012
1679.345193530012
1679.345193530012
1649.401910625873
3238.427985127563
3210.236980841888
3210.236980841888
3144.921792584941
3136.341436853574
3136.341436853574
3049.690918012273
2931.267702818409
2807.608545723064
2747.743612627284
2689.073397378102
2631.83534619596
2653.135808336244
2674.915542913002
2571.045312296234
2483.575322304122
2429.457274597063
2335.118487694216
2279.107330727356
2279.107330727356
2279.107330727356
2225.215305076906
2138.807482772881
2055.754981519494
2024.788447367597
1946.163444221066
1870.591545771882
1797.954196243639
1728.13744352522
1661.031760404864
1628.462510200847
1611.642612066971
1611.642612066971
1611.642612066971
1611.642612066971
1611.642612066971
1611.642612066971
1611.642612066971
1611.642612066971
1611.642612066971
1611.642612066971
1611.642612066971
1611.642612066971
3029.85317747854
2917.597512100761
2922.801054863261
2895.030653966978
2822.724130890246
2752.236904669366
2683.42539210912
2680.297450289879
2623.761913355852
2623.761913355852
2623.761913355852
2623.761913355852
2623.761913355852
2521.878040518889
2423.950442636379
2317.338283821012
2317.338283821012
2317.338283821012
2317.338283821012
2265.243984021293
2208.456593003174
2122.699531913855
2032.34300766478
2002.585271664157
1938.127253217931
1938.127253217931
1904.793727268065
1866.313379242768
1866.313379242768
1832.097747499374
1796.174262254288
1692.575124060776
1726.426626541992
1706.424064001878
1706.424064001878
1706.424064001878
1706.424064001878
1706.424064001878
1706.424064001878
1706.424064001878
1706.424064001878
1706.424064001878
1706.424064001878
1679.345193530012
1679.345193530012
1679.345193530012
1646.416856401972
1646.416856401972
1646.416856401972
1646.416856401972
3241.832166940406
3174.929397183886
3147.291157688126
3147.291157688126
3083.256659397001
3074.844545934876
3074.844545934876
2989.893056874777
2873.791865508244
2752.55739776771
2693.866286889494
2636.346468017747
2580.230731564667
2601.113537584553
2622.466218542159
2520.632659113955
2434.877766964825
2381.8208574481
2289.331850680604
2234.418951693487
2234.418951693487
2234.418951693487
2181.583632428339
2096.870081149884
2015.446060313229
1985.086713105488
1908.00337668732
1833.913280168512
1762.700192395725
1694.252395612961
1661.031760404864
1596.531872745928
1580.041776536246
1580.041776536246
1580.041776536246
1580.041776536246
1580.041776536246
1580.041776536246