/*--------------------------------*- C++ -*----------------------------------*\
| =========                 |                                                 |
| \\      /  F ield         | OpenFOAM: The Open Source CFD Toolbox           |
|  \\    /   O peration     | Version:  v1912                                 |
|   \\  /    A nd           | Website:  www.openfoam.com                      |
|    \\/     M anipulation  |                                                 |
\*---------------------------------------------------------------------------*/
FoamFile
{
    version     2.0;
    format      ascii;
    class       volScalarField;
    location    "5000";
    object      rho;
}
// * * * * * * * * * * * * * * * * * * * * * * * * * * * * * * * * * * * * * //

dimensions      [1 -3 0 0 0 0 0];


internalField   nonuniform List<scalar> 
18230
(
0.2997657612794349
0.1762582632391087
0.3293908167483323
0.2989524851546064
0.1176662482150462
0.1795257220702316
0.2490120849277062
0.3270194683063145
0.2977991968745241
0.3332134846105204
0.1263033385328153
0.1811151937152438
0.150455176690001
0.2494288849214727
0.3261040679692534
0.2975415384404922
0.4002642963930294
0.3363938802739486
0.1311841442258087
0.1832646266827783
0.2794461223185648
0.1530492902713342
0.2491470049492547
0.3250848807900386
0.2968408209330543
0.408529140398828
0.4013929793124833
0.3364180888621103
0.1361106529067456
0.1863201324718299
0.4745279001900726
0.285591192923562
0.153455949580366
0.2493922670266755
0.3246210853984048
0.2963464904068815
0.4150611918726641
0.4092637982418303
0.4001516440846706
0.338462027377722
0.141597166209758
0.1898596738356174
0.5998647035635558
0.4762045001380035
0.2888321496923157
0.1551161770367372
0.2489051166460895
0.3239657638926673
0.2959644194364553
0.4234859999086729
0.4159013290618155
0.4081649185065412
0.4006387695484451
0.340103098161451
0.1479034730893265
0.1931766711129934
0.6145239552380998
0.6016871669172053
0.4780779261508128
0.2935681923937202
0.1577992379964244
0.249636720249749
0.3234369131111278
0.2959544529006539
0.4330535635399294
0.4244456659535736
0.4146488206346337
0.4082948672027242
0.4003694107063248
0.3422339492064023
0.154782619717752
0.1971989378294444
0.6249408913613546
0.6158132593739527
0.6015264079238013
0.4805884823391654
0.2991333822798865
0.1610571403852821
0.2500768218232419
0.3227030295876491
0.2959815538311343
0.4438105731218275
0.4340117500560879
0.4230366422816715
0.4150235463683304
0.4079590818440081
0.4005197124959937
0.3451706705765399
0.1625999374945822
0.2009751741270593
0.6270778121768235
0.626212758025689
0.6163498030663385
0.6026405958466712
0.4815409387404362
0.3052093705415221
0.1642422736680539
0.2508727256398433
0.3222779129937786
0.2964424728899595
0.456683915566996
0.4450608449609157
0.4325959970616097
0.4233271240030272
0.4144424080174581
0.4079352287473005
0.4004492701678695
0.3481418760930938
0.1712604599675503
0.2054386570512311
0.6261988464837416
0.6282870326041966
0.6264240068222002
0.6168452011984825
0.6027314001461809
0.4848437108835209
0.3129785613179349
0.1677179997483084
0.2518052427232332
0.3219630784279843
0.2968694142225728
0.470688275591846
0.4579699126023582
0.4432208708672797
0.4328249230071289
0.4229199093692764
0.4144651161610137
0.4078204414834658
0.4006609921382576
0.3513814547157244
0.1809615835131674
0.2100590127283846
0.6247040108821658
0.6280756827148474
0.6286976842194022
0.6271699979048937
0.6173494085764707
0.6038796123458001
0.486037788328798
0.3206647054361231
0.1724251827242237
0.2534715869714652
0.3212525114110866
0.2980474865808453
0.494157532282095
0.4720761786287603
0.4559784267080156
0.4436657247570315
0.4324463976465713
0.422899636925568
0.4143295383145259
0.4077895969590157
0.4007465254147236
0.3549742397841361
0.1915929532726141
0.2159422058336473
0.6214825763544026
0.6262090938059072
0.6281231932561706
0.6292896946484053
0.6273921235110002
0.6179246619726716
0.6041669904127651
0.4891776963448962
0.328724530477033
0.177453924081703
0.2549206895864489
0.32040664801638
0.3001308865720082
0.5495482415257763
0.4952601106673651
0.4698800557161802
0.4564497328060166
0.4431500711611661
0.4324411437228693
0.4228217237832903
0.4142922972063836
0.4077383730430944
0.4009900661793716
0.3591540991652
0.2032124773548589
0.2232088533187596
0.6197505293561114
0.623058287642112
0.6266892885947651
0.6287886226587496
0.6296206879669904
0.6281219915448405
0.6184539458089768
0.6054976750716818
0.4925407696574424
0.3380734539577295
0.1831578357050067
0.2571680312745078
0.3204770119363539
0.3036389565414973
0.6259224608937956
0.5493098276209991
0.493200994006289
0.4703939046578435
0.4558956534059471
0.4431538159836271
0.4322625231660622
0.422773094778208
0.4142645838475709
0.4077680745813799
0.401174920182358
0.3632787006466696
0.2159702759286084
0.2309957664070048
0.6168481242946638
0.6212398384346784
0.6232754663128577
0.6269340169502247
0.6291448655651425
0.6302369890660118
0.6283684357607348
0.6191614783572281
0.605725048504821
0.4967696434057078
0.3471476404449265
0.1868982431925773
0.2598969379562684
0.32111573774736
0.3088014136289621
0.7258931288520808
0.6259022735923758
0.5483333195477667
0.4941147432006892
0.4698251858360071
0.4559001387612198
0.4430557470324171
0.4322795430819948
0.4227618840464998
0.4142606179566851
0.4077906632851682
0.4014568363480928
0.367310881405417
0.2294677148535138
0.2394557375014011
0.6120707700034671
0.6183139360054575
0.6217887547418072
0.6239101595798756
0.6277003761262929
0.6296912908198986
0.6305410383045715
0.6291661014963479
0.6198315989081973
0.6074172333646495
0.500552717584664
0.3570375670811429
0.1925055556361039
0.265214192709805
0.3224256138075784
0.3164512421312186
0.7818058641638372
0.7256553097400518
0.6250769579201455
0.5485552959372144
0.4930403881006142
0.4699387323427807
0.455729702922266
0.4429856113229808
0.4322043044307115
0.4227633493993106
0.4142971482460311
0.4078660966500048
0.4016886720010049
0.3715816493727532
0.2437193558170694
0.2494415627255085
0.6039863388356996
0.6134292789778376
0.6186359136580523
0.6220556127296472
0.624223982951813
0.6278139757784853
0.6300633243249144
0.6312898927228157
0.6296127790405941
0.6206718025629864
0.6078667498653336
0.5065662438750282
0.3675859668823168
0.2000260616405361
0.2750229062576861
0.3238178119038435
0.3266672540695016
0.8055259884231623
0.7809615812149114
0.7248056873122143
0.6246841614072
0.5485957889838032
0.4935517381078029
0.4695606581871469
0.4556065789529396
0.4429234672936032
0.4322439272509857
0.4228297079100285
0.4143782176646924
0.4079920423359887
0.4021444138617511
0.3756615977810051
0.2582165458565877
0.2610599848682003
0.5943552781978552
0.6052993854908995
0.6139261406881241
0.6191658935942614
0.622765554528127
0.6248517401038712
0.6286921307673781
0.6307763447742066
0.631631747353525
0.6304543280163252
0.6215369500753027
0.6098567931628917
0.5113993121464396
0.379419160388153
0.2085174894501489
0.288169628401612
0.3247843181765762
0.33869377008691
0.8226396810626826
0.8045293588949471
0.7803930238751636
0.724630854147818
0.6246521617441625
0.5481608433794727
0.4929153093500997
0.4695637925153054
0.4555124173562354
0.4429167859910313
0.4322483393937268
0.4229121306736106
0.4145076711562307
0.4081649292306677
0.4025076269519717
0.3797684999657975
0.2726983735790024
0.2744484367641712
0.6064152523711026
0.5956761547129434
0.6058235152715701
0.6144282047160945
0.6195817322106357
0.6229879071946276
0.6251895975501709
0.6289208781338477
0.631116041938543
0.6325298531185684
0.6311549514524734
0.6225831743661913
0.610454696075696
0.5182379919039304
0.3919993810552476
0.217293541369217
0.3051614859102478
0.3285615594844792
0.3529732283383938
0.8387825541908309
0.8216740687416542
0.8041649630253026
0.7799782416686061
0.7241584934979758
0.6241010735930075
0.5478216117216539
0.4932306078899123
0.4693376148934183
0.4554121602147056
0.4429043445396907
0.4323353529132185
0.4230753283348312
0.4147212347515672
0.4084574689177167
0.4031542308346071
0.3836779860887616
0.2866207515163
0.2894278105797382
0.6245025117243352
0.6082988295470312
0.596253407112741
0.6063340482856893
0.6148630658386363
0.6200784987714596
0.6237171627211747
0.625909930763186
0.6297181777493049
0.6322515078004454
0.6330590444234878
0.6320104512453589
0.6236604230243029
0.6122064776855665
0.5247318191060063
0.4053794606089682
0.2282689281705006
0.3278153933981428
0.3370342832690198
0.3698590513420773
0.8536118324511953
0.8378251065456249
0.8212170407962586
0.803680184832281
0.779465677483936
0.7238488229447214
0.6245046363533303
0.5477598608858962
0.4926385069597376
0.4693203127345079
0.4553505281100414
0.4429739138981141
0.4324777465955352
0.4233109001273793
0.4150655423411066
0.4088587467278642
0.4037748181867898
0.3874144053585642
0.3001845649890266
0.3059429168692383
0.6365397723956689
0.6262614681672641
0.6085185144541791
0.5967572271464543
0.6068783970139486
0.6153688898371373
0.620584343296277
0.6240613171440943
0.6263542884297659
0.6303529305929421
0.6324843247635502
0.6339901099363726
0.632870543061547
0.6248013602846786
0.6134827394362113
0.5324180315450561
0.4156780417766306
0.2405424090901982
0.3552397010290932
0.3473627294465036
0.3901013805362329
0.8670038091891926
0.8525762715291129
0.8374075259758504
0.8207851954882591
0.803257704669051
0.7790688242230115
0.7232915052988281
0.623637176188868
0.5477113584469243
0.4930093538352954
0.4691634007815705
0.4553095449757386
0.4430750897232151
0.4326911076447492
0.4236839597770581
0.4155553470161622
0.4094521798056585
0.4046794632253125
0.3909376915664555
0.313161334816124
0.3233103158871298
0.6199140362162668
0.6383412203883158
0.6266020690679829
0.6093189528697419
0.5972315471177848
0.6073124952380846
0.6158440004147118
0.6211195226506555
0.6248348702735851
0.6272507111520382
0.6309978085706786
0.6338550643107261
0.6346467723601512
0.633810924760103
0.6260527086889912
0.614994002393127
0.5405809385062224
0.4236285170278598
0.2528586629760428
0.3842016090370943
0.3605663386273413
0.4141953107070781
0.8808759310169673
0.8660774810136183
0.8523006808414207
0.8369066816332594
0.8202552890578526
0.8026377689260598
0.7784545344976991
0.7229659104490052
0.6235750551197929
0.5472984635982978
0.4925186647321814
0.4691542571574204
0.4553005951261498
0.443280346889982
0.4330386974426335
0.4241882374818135
0.4162814419793651
0.4102171491312476
0.4055959345739913
0.3942370791387753
0.3254174765550233
0.3415421561697065
0.5994907478662143
0.6217997421179423
0.6387374347058259
0.6272009352615746
0.6095235741920947
0.5977349661521243
0.6077857978769406
0.6163904508640343
0.6216771936995025
0.6255164213308372
0.6277823554157693
0.6319189757097384
0.634024596936452
0.6354186475081145
0.6344604339055389
0.6271451315086107
0.6167258929460477
0.5491313086129326
0.4322740564713584
0.2658687371165589
0.4120868256307292
0.3769548856746658
0.4408170287195549
0.8919064436351599
0.8795568946055778
0.8657394174328401
0.8518367756614832
0.8365018772467769
0.8198047008835005
0.8020683769051145
0.7778445081479634
0.7221589177227484
0.6231873284616088
0.5472197064143752
0.492887897720838
0.4690783575860948
0.4553938952179703
0.4435803323577737
0.4335171783302959
0.4249153629994347
0.4172364542824613
0.411218862708976
0.4067567331988554
0.3973049089440992
0.3366583965039037
0.3602711288705469
0.5892947299502768
0.6014709815662481
0.62237386646767
0.6393784195121658
0.6277652063100327
0.610362565766134
0.598253415107832
0.6083918026550523
0.6169785023279986
0.6224702350788351
0.6261546326976939
0.6287518578363464
0.6324847184361473
0.6347621335243445
0.6362053235788075
0.6353138419450514
0.6283291033478755
0.6184860304616384
0.5574896351938522
0.4429600553754348
0.2798347258482414
0.4403839529747536
0.3964412094102112
0.4680083386194435
0.9043590215463817
0.8909291596178399
0.8792723874094259
0.8652722025487259
0.8514150600252844
0.8359729630092175
0.8192260947398453
0.8014931348729251
0.7772394425627709
0.721888600360864
0.6228417677525677
0.5470823900873313
0.4925240932601748
0.4692202760798079
0.4555577766204916
0.4439964268280261
0.4342107520816478
0.4258628529804261
0.4184946243548269
0.412451448605026
0.4080536230074575
0.4001406208561897
0.3467744425073027
0.3796403190887526
0.6165325545602929
0.5910048727091862
0.6021049468455628
0.6228915736675057
0.6399182098189117
0.6282821856804945
0.6106850826638025
0.5988312432575569
0.6089242520691931
0.6176038466818763
0.6230414185155749
0.6271693412158665
0.6294199836103075
0.6328766454569076
0.63549677687532
0.6368585165011874
0.6360557067779232
0.6294285626252495
0.620010424929638
0.5658517801627279
0.455082424617494
0.2945314936663659
0.4703583820399785
0.4182645104602888
0.4951358538430687
0.9140541174683551
0.9029698571217826
0.8906282795361724
0.8787699774413292
0.8648079735948403
0.85084590965706
0.8354305331202565
0.8186069408581812
0.8008744700066398
0.7764981537559269
0.7211786792221225
0.622570321951419
0.5470439034894875
0.4930374848748602
0.4693274154089006
0.455871384027224
0.4445989892719715
0.4351167250791772
0.4270862470584811
0.4200455856185016
0.4140433721840264
0.4095795769328668
0.4028116220116351
0.3552930931854331
0.3995727403215253
0.6512090444020082
0.6193467877635737
0.5919407539050151
0.6027508070911269
0.6234804987073224
0.640509347735647
0.6288178511181448
0.6115559988233277
0.5994245054573308
0.6095960404799199
0.6183397462343031
0.624057799934442
0.6276630737755191
0.6298629797627914
0.6335677741401571
0.6360804987405045
0.6374314340480005
0.6366329177745204
0.6303588544736503
0.6216707322398763
0.5735343627424749
0.4683780557204325
0.3095979967447617
0.5021505820794125
0.4419341609530458
0.5206495890072131
0.9239295676836278
0.9127782463157162
0.9023786869771302
0.8900226284314924
0.8782426098067025
0.864213052210505
0.8502420492478207
0.8347535212404709
0.8179292625746524
0.8001176637540149
0.7758347936870293
0.7206746259534621
0.6223676297030704
0.5469930423620397
0.4928804857913184
0.4696895429536541
0.4563121785949609
0.4454183169708384
0.436282871406892
0.4285827667877834
0.4219619773097902
0.4160259729696574
0.4114191749646741
0.4054355104277523
0.3624501496146726
0.4227683041446623
0.6722174119720442
0.6532891113454422
0.6189856142160123
0.5920033284312082
0.603355286373902
0.6240807995809858
0.6410789003081917
0.6294849716153523
0.6118712676989038
0.6000731497126119
0.6101990898117533
0.6191706380714196
0.6245991144587686
0.6281361615747855
0.6305893862934361
0.6340740144764495
0.6365649951624008
0.6377801744859116
0.6369551972234755
0.631269461300994
0.6231218249710836
0.5807625684223406
0.4818869543660285
0.3250775578862818
0.534819625676793
0.4669233396124884
0.5450816105814337
0.9336697863895536
0.9226805576601224
0.9121032317855431
0.901751775598159
0.8894688119449879
0.8775794844238585
0.8635797669867651
0.849609966097796
0.8340743067009398
0.8172080517015656
0.7994139029828208
0.7750313469543292
0.7200438684074644
0.6222718984047934
0.5472163003722598
0.4936565621862162
0.4701259152684141
0.4569736518635576
0.4464454721983354
0.4377062378099645
0.4304291651275292
0.4242770020825848
0.4184902483790111
0.41377223738921
0.4081216351823994
0.3678447817776414
0.4473101694211184
0.5697657186142111
0.67484448835356
0.653545054890588
0.6195696917171015
0.5931406384228394
0.6038691223277411
0.6247233836909136
0.6417456074080795
0.6301261392855283
0.6126408353504348
0.6007611871420055
0.6110498200546001
0.6198098857197265
0.6251388210841474
0.6288449312437974
0.6311368093329263
0.6344872391741465
0.6368002777068887
0.6379100839809593
0.6371266771695884
0.632048918877011
0.6246811153559375
0.5873328638598823
0.4946820209735932
0.3405581580047699
0.5676551070564211
0.4913107893221049
0.5670186731630712
0.9421187273865831
0.9323506599224908
0.9219800357820392
0.9115395467581622
0.9011378713222744
0.8888428926020989
0.8769575678039038
0.8628698805451147
0.8488667530039358
0.8333618004144151
0.8164227972454963
0.7986048810968049
0.7743249899547652
0.7194627123247191
0.6221516874448436
0.5474091862531606
0.493884217534335
0.4708501798898819
0.4578164496143041
0.4477083706103955
0.4394540882488966
0.4326436635823726
0.4270134662539417
0.4215312809902234
0.4166504232192718
0.4109939398319534
0.3736244463657005
0.4727834472596264
0.4563551479771107
0.5721946650537086
0.675001427071781
0.6542408382610917
0.620248567893803
0.5932091783481952
0.6044528182402771
0.6252947146491385
0.6424137634572215
0.6308296624333487
0.6133374970516484
0.6014595692855962
0.6115121210773943
0.6203555445403413
0.6257808436732506
0.6293743681773174
0.631594719108
0.6346388934794902
0.6368055437134321
0.6378659038625593
0.6370918511694851
0.632916917970462
0.6261438237847018
0.5931654704688039
0.5065701901588596
0.3560458988131744
0.6055408171393876
0.5106010654965343
0.578221887474531
0.950678359147244
0.9407721654808492
0.9316398113372606
0.9213013182141505
0.9108695737414229
0.9004514356876229
0.8880947307554804
0.8761960078811802
0.8621100350659503
0.8480529028391077
0.832527528615302
0.8156173021441673
0.7977559334515081
0.773477458096687
0.7189210367365862
0.6222528699141494
0.5479079085083006
0.494984276549093
0.4717138426157067
0.4588909337403255
0.4492479693305001
0.4415375820752536
0.4352663566295513
0.4302030099047631
0.4251950710986732
0.4200062907685722
0.4142392174297012
0.3794056310628008
0.496471487575023
0.4194377756510036
0.4579989878464888
0.571845470949002
0.6751723843376016
0.6546246027884586
0.6206107889770039
0.59421207780727
0.6049830673556544
0.6259696631492412
0.6430827833250454
0.6315582494531248
0.6140487604515772
0.6021637857839612
0.6121910880063584
0.62100392091434
0.6262864466720006
0.6297960224590101
0.6318087918272036
0.6345653962984181
0.6366030439819904
0.6376775255446303
0.6370622375516443
0.6337115860633189
0.6276525838683866
0.5982504160627989
0.517356840776785
0.3736267661319391
0.642286931802574
0.5278717719876675
0.576287158666671
0.9584538372803412
0.9492863838203487
0.9400761545037141
0.9310593328238395
0.9207126929259748
0.9101189997315196
0.8996875134759855
0.8873286252071901
0.8753960315015633
0.8612843535810224
0.8472284973808641
0.8316714463149657
0.8147707876730294
0.796916058460803
0.7726764100303013
0.7184674987085804
0.622512456134878
0.5485999456161822
0.4958038082593667
0.4728820423838825
0.4602466116104054
0.4511087646867964
0.4439913065760504
0.438330648103512
0.4338944324237244
0.4293993185227569
0.4239103879690762
0.418101661293146
0.3854458230966485
0.5044343186798955
0.4398463553606081
0.4198128357327493
0.456604729512112
0.5723497731690149
0.6758289853110587
0.6551931372310683
0.621545158915503
0.5946680571312274
0.6054774068971081
0.6264694338009784
0.6437168382589784
0.6322746719377986
0.6147693216998557
0.6028073251303974
0.612764324726239
0.621475160901316
0.6266542506637935
0.62997021138487
0.6318116974784341
0.6342835755331524
0.6362678493069447
0.6372785717697922
0.6370555691603955
0.6344957009164722
0.6290353477267399
0.6026755640934404
0.5269939768351978
0.3956080522444738
0.6447651937251169
0.5186436225190592
0.5682186174019692
0.5778913378065834
0.9661988541346588
0.9570013851235591
0.9485752866529462
0.9394103119204394
0.9303502245719318
0.919998267684483
0.9094526637420417
0.898926796281413
0.8864998082171823
0.8745511983986305
0.8604289619518517
0.846342452647959
0.8307649573416241
0.8138775300835343
0.7960565634205925
0.7718626452816004
0.7179833261878329
0.622925419327197
0.5494376247996083
0.4973299352025575
0.4743348117671636
0.4619604133522142
0.4533140152229599
0.4468650533049785
0.4419064216286214
0.4379978944200179
0.4340304952849409
0.4284422484065708
0.4224510184384371
0.3870738531979894
0.4335913800141392
0.468939294223742
0.4406011802291568
0.4198238715840742
0.4571498080934718
0.5724642721147022
0.6756954961287036
0.6556160482438718
0.6214520318752235
0.5952408240910374
0.6059129524579629
0.6269701430861653
0.6442722471315487
0.6329360767837472
0.6153858998571091
0.6034217602779982
0.6131782648318033
0.621801613934639
0.6267729480381478
0.6299422243613549
0.6316333838896274
0.6338714183395154
0.6358916878322982
0.6370495708610344
0.6370454311896474
0.6351097231676728
0.6303608598025103
0.6065183836655382
0.5349383762202737
0.41376804088678
0.6303937200184957
0.5496858452915107
0.5653882955005578
0.5981511321730846
0.9733447092733423
0.9646778064292892
0.9562543890583345
0.9478674423804017
0.9387340959720384
0.9296759361182393
0.9192712163163379
0.9086197382952942
0.8980623235593554
0.8856247487580367
0.873668903669636
0.8595247915627894
0.845436300254511
0.8298668734190908
0.8129893497037779
0.7951813888399701
0.7710900535681035
0.7177008359438664
0.6234677010149484
0.5505104552607879
0.4989492447281567
0.4762070646063138
0.4640376374947288
0.4559882736617117
0.4502253739166523
0.445893954885473
0.442575099686161
0.4390191511076509
0.4334591641295594
0.4263208713786048
0.4060421100568394
0.4243909843291598
0.4925802154183295
0.4694383003077755
0.4401625585933443
0.4198836356208989
0.4572576744648488
0.5726585544389154
0.6761998846737042
0.6558593842748521
0.6226128591611497
0.5956992044673826
0.6063114926231726
0.6273120199805212
0.6447238889145157
0.6334606690067328
0.615956914234675
0.6038603293785789
0.6134141569767406
0.6218750940244442
0.6266968611245435
0.6297314209621994
0.6313349811685369
0.633388880389319
0.6354302111336662
0.6365419544077611
0.636971726974612
0.6355343274768587
0.6315534088728402
0.6098609080487668
0.542486219595424
0.4444880052608898
0.6168138446291223
0.5570687303138739
0.5535326748121983
0.5758328329188424
0.5942254203398887
0.5364459007208749
0.6228762978662277
0.980158268325162
0.9717189611712788
0.9639088467243364
0.9555741441027638
0.9471642119026363
0.9379745350696627
0.9288977898762442
0.9184564459770129
0.9078136046322824
0.8972205464699482
0.8847589577823194
0.8727488793627407
0.8585894487028518
0.8445087551123768
0.8289395628911773
0.8120990978779701
0.7943454079461565
0.7703430615850415
0.7174905243487855
0.6242925255792067
0.5520219975691459
0.5011964479646941
0.4784131002446798
0.4666910627307149
0.4591839596695992
0.4540689944862501
0.4504740062038105
0.4475675440521736
0.4444108663666786
0.4383706207781457
0.4323336247074219
0.4150884822827314
0.4162410202133638
0.5077783378286121
0.4929681373033065
0.4690730853054465
0.4403404243238516
0.4199004577512011
0.4570188733527002
0.5728076804942407
0.6763052475886006
0.6562248664042543
0.6220396419607084
0.5957435256991328
0.6065630194000481
0.6276443835487121
0.6449799613492617
0.633889527488332
0.6163456014679251
0.6041357805683805
0.613391536786429
0.6217751804840546
0.6264387636488911
0.629396568741859
0.6309979845287724
0.6328980573035836
0.6348936355402703
0.6360848731681009
0.6366820077658025
0.6356867962573824
0.63261137244412
0.6123106202577501
0.5446908066654942
0.4224762396872818
0.5114532405520651
0.6154811503384523
0.5715127388539691
0.5970062131966923
0.5757290488739369
0.6163380912789326
0.5530080256918586
0.6394802184654986
0.9863113368997308
0.9785702630274413
0.9709482762146611
0.9631845600721562
0.9548912226718796
0.9464452522913201
0.9372011818094027
0.9280786097820396
0.9175909504656033
0.9069124878604662
0.8962755314629893
0.8837884492655564
0.8718007308889797
0.8576392581499728
0.8435650879075777
0.8280423213231926
0.8112320091063847
0.7935281801022156
0.7696432319590256
0.7174072790452286
0.6254778006116959
0.5538591002006091
0.5037802622835186
0.4812696213596744
0.4699355506491868
0.4630058564880761
0.4586309018871549
0.4555132972712068
0.4529812961352216
0.44871061359836
0.4373030976187827
0.4468570945790071
0.432765531464248
0.412063058007291
0.4150982822252087
0.5222902921330975
0.5079737105976031
0.4928420024790375
0.4694133682608035
0.4404464340018985
0.4199561752376151
0.4570135509908743
0.5728030677885866
0.6763543206123172
0.6563785955258413
0.6224776404980561
0.59664072342524
0.6067697378900122
0.6277854623928837
0.6451158250158426
0.6341826957170441
0.6165625515793181
0.6043039438139912
0.6132282008678231
0.6214935313622997
0.6260505850772772
0.6290153163684141
0.6306410112655177
0.632335004938341
0.6342361879139337
0.6355085644768739
0.6362251128637253
0.6359385621290958
0.6335668359626573
0.6154993446611838
0.572105845644277
0.4638856573853786
0.5280055513713015
0.6549217507738809
0.6004334684976895
0.5345499173541312
0.5999029682624147
0.6060328860586648
0.5877291243275483
0.6364017622492848
0.4739493311275921
0.6195808157570871
0.9930219101458888
0.9849752305151657
0.9778240459270425
0.9702544804820762
0.9625381676460444
0.9541437248671309
0.9456932088153616
0.9363777941984277
0.9272046195058155
0.9166842929414634
0.9060091763985967
0.8953641508011265
0.8828369942379674
0.8708170640412972
0.8566675555467353
0.8426162139548492
0.8271280344904546
0.8104178302822279
0.7927662499136863
0.7690072025344187
0.7174211353387389
0.6268814859597399
0.5560949578329051
0.5070312148710663
0.48477182014829
0.4739269200348704
0.4676779786145795
0.4637194477508101
0.4612492355121292
0.4571937510028808
0.4552946775615744
0.4432660232739038
0.4526396687291441
0.4378170499557109
0.4199916484500924
0.4149870210875857
0.5375371410523726
0.5225632154755835
0.5080412571560577
0.4929415815377816
0.4692515861112033
0.4405353578350548
0.4199773833416401
0.457082350406369
0.5729412381950847
0.6763722762739816
0.6565456641616787
0.6226067824004617
0.5968091730265768
0.6068503025978987
0.6277834224613164
0.6451229536482171
0.6343185145873048
0.6166517004068434
0.6042396607792695
0.6128902972048432
0.6210894057160953
0.6256197636772264
0.6286082010742765
0.6302228627699806
0.6317557453497482
0.6334041123475078
0.6348591937929555
0.6358052335322942
0.6362146296713662
0.6343897691312553
0.6085583849394424
0.6263016419635044
0.5614907811198194
0.5251581392708724
0.454163024614159
0.6406505643820157
0.6152351244941459
0.5386404212991415
0.5946600509628368
0.6064377777966018
0.570659665821308
0.64319098390142
0.5361349980245932
0.6178501664442664
0.9999428851672775
0.9918508501966906
0.9842772849326483
0.9771541398995178
0.9695514783658256
0.9617229292568598
0.9533279817333415
0.9448372558556108
0.9354921421191258
0.9262857263757848
0.9157297530250275
0.905003067101688
0.8943647563365137
0.8818397664775908
0.8698332236873808
0.8557127714247104
0.8417071268808977
0.8262912037902427
0.8096265535421335
0.7920697115858261
0.7684278906575034
0.7175264935996666
0.6285243133596835
0.5588954621872724
0.5110458145539452
0.4892355913404187
0.4788306871620106
0.4730074655377654
0.4699766271546292
0.4660503236303422
0.4640304971314509
0.4592766756124322
0.4424515276445843
0.4515242946012978
0.4586563725943562
0.4398163501627742
0.4159074971044648
0.437114615607538
0.4142919277118368
0.5530729090523903
0.5376964241000124
0.5225597675524247
0.5080836806794826
0.4929470184634928
0.4694275760757449
0.4404666209643763
0.4200200104541681
0.4568673759632205
0.5727417754724309
0.676429041816578
0.6566599116410125
0.6227082227654693
0.5970531218743206
0.6067829738122329
0.6276905596032001
0.6450268264262985
0.6343588621180487
0.6166504699167513
0.6041113541553518
0.612477712762894
0.6206466059488396
0.6251515325532734
0.6281179772711151
0.6297619426754189
0.6310882680826484
0.6325382845283114
0.6339282406822416
0.6355547711027393
0.6367848557473136
0.6362481515627311
0.6195364625042364
0.627475737041317
0.5708471065003822
0.5500608203659065
0.4776304756822604
0.6441010324618629
0.602449167102051
0.4953974941956187
0.6282110816104166
0.5823573262692365
0.5941891977856778
0.6336121428551283
0.6340035052486993
0.4922109733774815
1.005720429261187
0.9981564384299523
0.9911570680428585
0.9836718046124197
0.9765015488256515
0.9688184695703852
0.9609756832371066
0.95250753241362
0.9439530156572661
0.934579550242034
0.92533730636397
0.9147765263532154
0.904032238261659
0.893360766665099
0.8808490673001337
0.86886003134858
0.8547781577204082
0.8408275813567947
0.8254618491097416
0.808914874008462
0.7913948439052471
0.7679006014400752
0.7177984770321885
0.630689045581418
0.5622080412995861
0.5156833578420631
0.4946233878530375
0.4846370731867155
0.4798685063035905
0.4755123134199213
0.4660630573968056
0.4736782717960207
0.4674755199982865
0.4665975817909032
0.4476543314374711
0.4560979298538254
0.4627705040218228
0.4455380405398625
0.4248686734048326
0.4439379898940974
0.4141877864490939
0.568508312841797
0.5532854037649632
0.5377706243843546
0.5226113541140062
0.5081092662385801
0.4930436739690619
0.4694423206002472
0.4406982879606072
0.4200369491269508
0.456943382122176
0.5726498947241687
0.6762264749040523
0.6567080850280539
0.6231447490696329
0.5971342060224945
0.6066430075274093
0.6274296968310558
0.644876329892477
0.634323472132203
0.6166468238797401
0.6040845961362905
0.612054983106753
0.6201625253425456
0.6245898306650609
0.6275751402296901
0.629170648310052
0.6304202396238917
0.6315720172540918
0.6333722012782802
0.635518990610292
0.6366733019998269
0.6360407887720732
0.6363173608330099
0.6211502990188869
0.6327138836745453
0.5995275644683129
0.5559190639785367
0.5389966781796126
0.6464231062413026
0.6242268593857442
0.488755694963607
0.6341586867619476
0.5727085504055036
0.5900528697828604
0.6419842748544536
0.6384923922899453
0.4770708254596731
1.011471297074256
1.004034741706236
0.9972963238815132
0.990513951346438
0.9830396424300245
0.9757153701344498
0.9680139617452809
0.9601098645662688
0.951598049162943
0.9430050472278009
0.9336043668071309
0.9243273267390345
0.9137508703895059
0.902992932960033
0.8923476941366193
0.8798624235949896
0.8679084080777298
0.8538872304464443
0.8399895536017811
0.8247271584679825
0.8082257458599014
0.7907412859826213
0.767374749148772
0.7182219019941266
0.6331927120041637
0.5661748338908988
0.5213609705469917
0.5009220957042112
0.4925016666949252
0.4842658248182478
0.4822511781782657
0.4710533119539493
0.4758959804093019
0.471689984069228
0.4671571863254119
0.4545361350519627
0.4625339006667482
0.4645501108601669
0.4500523103184149
0.442262016923973
0.4211454057795695
0.4499117051834569
0.4261261694988236
0.5853071754947418
0.5687356188052124
0.5533814147471523
0.5377478869391092
0.5226279604020886