/*--------------------------------*- C++ -*----------------------------------*\
| =========                 |                                                 |
| \\      /  F ield         | OpenFOAM: The Open Source CFD Toolbox           |
|  \\    /   O peration     | Version:  v1912                                 |
|   \\  /    A nd           | Website:  www.openfoam.com                      |
|    \\/     M anipulation  |                                                 |
\*---------------------------------------------------------------------------*/
FoamFile
{
    version     2.0;
    format      ascii;
    class       volScalarField;
    location    "5000";
    object      T;
}
// * * * * * * * * * * * * * * * * * * * * * * * * * * * * * * * * * * * * * //

dimensions      [0 0 0 1 0 0 0];


internalField   nonuniform List<scalar> 
18230
(
294.2570496931508
271.5660577639966
295.7019717051363
295.8220057782092
141.8974244340047
270.825974926356
276.8582389170984
297.482053223741
296.5022281805253
175.0747320021301
140.511189338551
269.7318580469541
220.2461564195133
277.0846487145173
298.2979933002815
297.0256391386082
190.1652889447156
175.8472156513369
141.2259483023765
267.791790968281
170.3658653031221
222.761396511345
277.8499158588447
298.8852923066903
297.5363235266178
191.7581780242268
190.2920186755296
176.1528591157904
141.894970306205
266.1684962663892
218.1073320626862
171.4876724576403
223.8416797566272
278.7884672443614
299.488088808999
297.9673084215459
192.979357146482
191.8464494794809
190.4322804868141
176.8669247091623
142.8557767232473
264.9225731564705
237.6751698734124
217.75723021352
171.8651813245059
224.574067915501
278.9501853527273
300.0237045557666
298.3901855372908
194.5396934628757
193.0619034302432
191.9908644012154
190.6278733319416
177.5638348657074
143.9833334994926
263.4903666616693
239.978759611386
237.228757403107
217.9626631103132
171.7964185878052
224.122074730651
279.3838237641011
300.5045650170628
298.7234995691153
196.2792293779576
194.6329644901308
193.2124158214531
192.1059757054086
190.7888118168841
178.1917549261679
145.2792100276264
261.9112595009685
241.5538789291692
239.5029356867062
236.9911672780697
218.3022899174439
172.1488023167703
223.5217091948181
279.7450905927548
300.8249730144722
299.0540017035377
198.2119827623435
196.372486967822
194.7798456670851
193.3671478127087
192.264867650867
190.9785590147364
179.1017522226963
146.6518109480849
259.7262491094191
241.8951965576315
241.1383686456863
239.3361775196136
236.9076758320608
218.3789278863444
172.4767672315874
223.1021218290855
280.0102731170514
301.0619488057766
299.34718091234
200.4739267272265
198.3350186843127
196.5546057699911
194.9219570461611
193.491612746128
192.4134201329207
191.1306355922216
179.9395408665987
148.2179413479384
256.9102905118318
241.8448929685414
241.4592622331814
240.9009284513031
239.1480161464885
236.7051376757091
218.8023529249945
173.1184234060063
222.5383091307532
280.1931766390817
301.2293930416741
299.3747914018164
202.8495778490149
200.622237508921
198.4836716881148
196.6584720459636
195.0604894361574
193.636094042321
192.5655711284029
191.3369980497569
180.9184406741845
149.9537397849214
254.0416279167132
241.5054251597497
241.3069334142009
241.2508094104815
240.7183649553355
238.9965455482198
236.5676916211512
219.039187217693
173.8986766579791
220.7726568192901
280.5866348726247
301.3512100861979
298.7309666651992
206.6193068667247
203.0517005131899
200.7591498979852
198.6132644838875
196.8066933927215
195.2052071070985
193.7865903374752
192.7189389745781
191.5310227977201
181.8323666058979
151.825103960482
250.5050712260965
240.9942017432601
241.0311209071551
241.0757774511159
241.0707880534118
240.5430709240407
238.8295604706922
236.4391577048449
219.4237036901732
174.7665171076387
218.7357738793428
280.91739359975
301.4265986318375
297.225531644947
215.2527124853781
206.9031820757703
203.1627143886953
200.8811171433062
198.7456224833019
196.9483277970847
195.363402312621
193.9400132342248
192.8930962301511
191.7635109956448
182.8382716528673
153.8974990617668
246.7915658555854
240.7173612298667
240.5014336178496
240.8101430377831
240.8950551799754
240.8931231702019
240.3650828106083
238.6568101207622
236.3008227621921
219.8924171948829
176.1900297445734
215.670134203868
281.5028042277294
301.4801688812898
295.0114915757941
226.893084244056
215.5621745316223
207.0118821403653
203.271129280016
201.0048774383946
198.8788543554864
197.0934548284609
195.5185801294087
194.1199066416235
193.084290811404
192.0040323911715
183.9511858195555
156.1458693096575
242.9619820800119
240.187102967894
240.2175290210025
240.282103469006
240.6253342418111
240.7138826020596
240.7127981311892
240.1799872778938
238.4688315292646
236.0846860540724
220.3530085952366
177.9499944337826
211.5360441167465
282.5984890223198
301.5610906511189
292.0900371630832
241.1601928904416
227.1257040062236
215.6513482664795
207.1314891105448
203.3984664618223
201.1283800928779
199.0437682454581
197.2644029738627
195.7042480182081
194.3071604346907
193.298015789402
192.2825477649328
185.112432623022
158.48995995263
238.4802504186538
239.3977255624747
239.6816486862956
240.0007393457981
240.0993096829092
240.4524252655399
240.5354008150081
240.5167642574906
239.9761471804042
238.2750586535567
235.9541208792438
220.7825411288051
180.010037597334
206.8852742538001
282.4642363617583
301.6925014081775
289.0420739970484
248.1132441733255
241.3413736715455
227.2995983249465
215.8127631845213
207.209792638366
203.5231869482005
201.2935665064783
199.1997256479758
197.4442101178064
195.8973353477258
194.5263973898131
193.5430027339423
192.5752089138813
186.3475354141264
160.9828885716018
233.4947716619912
238.0198484162057
238.8758471193942
239.4713187540713
239.8097362088361
239.9149417792983
240.2640621450707
240.3362175627881
240.3173543725309
239.7707603758544
238.0538813179665
235.7330770783012
221.3089938413858
182.055262284049
200.6109389272565
280.5399875739462
301.8414411696636
286.3283670442431
251.0900245435799
248.4426788747847
241.5167257345139
227.3763115464168
215.9655913141819
207.3718536954555
203.6740597019428
201.438901458791
199.3871540924424
197.648336808631
196.124908585116
194.7756069188956
193.8118691382672
192.9169723033508
187.5306662190178
163.4723973026697
228.3926105505924
236.2640572111006
237.5092116323449
238.6547766367053
239.2863627341331
239.6355026607156
239.7339587881376
240.0836044071893
240.1441331855714
240.0911049994385
239.5158985500778
237.8284226845689
235.5771283013986
221.8372573399101
183.682434796067
193.4041131209011
277.6389849501809
301.8085153853362
284.0547162563407
253.2215823233435
251.3648559075308
248.5595180635759
241.6611516873535
227.5594254828697
216.0851086919007
207.526345477377
203.8287215440307
201.6291179888264
199.5870032366473
197.8694920007966
196.3790924071496
195.0491662314846
194.1076742586853
193.2505149497851
188.6906104831924
165.9894838651624
223.2578386913157
237.9168793243239
235.7419761128238
237.2647463700207
238.4747505596551
239.1026499896727
239.4446185287966
239.5398079368889
239.8699605097345
239.9160643966004
239.8408784782063
239.2744642150269
237.5806341766286
235.3322467549839
222.5589614141199
185.3450326719652
187.5514003836581
273.4775332289744
300.6469554923781
281.8285119745105
255.2045265541626
253.505902411354
251.5200267511119
248.6880764059089
241.7848735819956
227.6436515327137
216.2319658806712
207.6981483146426
204.0181897809304
201.8141183902007
199.8133998563092
198.1277612206289
196.6628678827404
195.3517066482612
194.4224795470282
193.6275472786647
189.7793002243935
168.4279961345225
218.5105874502854
240.3188222850966
237.3232803293207
235.5157627710194
237.0686664832728
238.2869926755048
238.9129148808219
239.2526403323961
239.3396125065971
239.6578209593023
239.6724680473815
239.5696854728639
238.972829038851
237.3458549260186
235.1567893263694
223.3142943314029
187.1200414980744
181.9298947834251
268.030142541311
297.4833283265476
279.7930494302054
256.9850307881003
255.4678122299902
253.6605371836973
251.6616620725973
248.8159289922916
241.9416502847233
227.9149936601999
216.4239893336383
207.8778176353449
204.2075976529813
202.0419449131789
200.070494272537
198.4113697449453
196.9713737300889
195.6781409292625
194.7579746734556
193.9803127322551
190.7872175795442
170.8374648080856
214.2867923400467
241.7481260814554
239.7449524885884
237.0780953191209
235.317961193317
236.8986062629086
238.0978285500931
238.7204451475703
239.0409479777758
239.1187172953042
239.3957646958061
239.3967263258693
239.2735004726504
238.7181128159061
237.1028481314967
234.9683376241626
224.0147901819755
190.1427381828545
178.4487565161873
262.0612878924527
294.6547130934804
278.5363467757684
258.5423283160297
257.2341361938457
255.623769857788
253.807435683766
251.8121583717842
249.0049131607296
242.0883647561766
228.0176402035198
216.6395711860917
208.1010082227617
204.4461166604936
202.2788619269332
200.3539642179989
198.7164175630185
197.3066014840071
196.0296546401758
195.0995803113336
194.3669517212284
191.7456756089375
173.1741750235325
210.8032411362327
239.04570360693
241.1387803074578
239.5017152572518
236.8761728140373
235.1337938254317
236.6905165915194
237.9028919765304
238.5011951113986
238.824300899272
238.8674236821448
239.1285670203555
239.1053011553327
238.9810138663675
238.4597742268085
236.8941930484095
234.8567352950959
224.7720614414482
194.2272482626359
177.652502791299
256.4544261756212
292.1635547473078
277.8875418141189
259.9488772057192
258.7931427799702
257.3856603805303
255.7536105308581
253.9404011673749
251.9707832378919
249.1762548637504
242.3123248509015
228.2650354986949
216.8269855818187
208.3384435994021
204.6781932855785
202.5536362097213
200.6575979623912
199.0502593958045
197.6630188575731
196.3985180786799
195.461134165518
194.7906127087387
192.6373959902815
175.4695358290189
208.1619084196056
235.5475863158914
238.3812743800183
240.888148402936
239.2943603025403
236.6764573048542
234.9375734503371
236.4860736545605
237.6777386873325
238.28029592818
238.5684274925162
238.5987397039819
238.8373249313964
238.8010628872745
238.6832968247677
238.180118073018
236.7139249617966
234.8149934057087
225.6100467591578
198.3065932298508
178.2074390430265
251.5625653717086
290.162837275097
277.0731573032894
261.3057321420505
260.2676679597054
258.9133801893655
257.51312445127
255.8958452664939
254.1048662187748
252.1482853751228
249.3675523954701
242.4774154280076
228.4990859909386
217.1002450806137
208.6107865910883
204.9642353767074
202.8340795875858
200.9879072170462
199.4021155592276
198.0355031601578
196.7964259157664
195.8535563128072
195.2214957297293
193.4696857071852
177.7164050255195
206.490724681668
233.7626943684573
234.7604825469476
238.1546626948871
240.6705482972855
239.106482744863
236.4886178105577
234.7377669696948
236.2661359676591
237.4534267339753
238.0278826236713
238.3019809132061
238.307016866194
238.5250124093641
238.5126607669233
238.3906400037172
237.9411913564595
236.5845115335689
234.8774924182284
226.5151467210521
201.9370665492289
179.539075838452
247.5082454070149
288.4975091384376
275.600756793722
262.4021875069295
261.5328596125718
260.4248550962366
259.0457533270933
257.6535057102129
256.0534152297088
254.2686331398135
252.3428886590401
249.5680138452309
242.7422991628527
228.7427532526886
217.3658164166673
208.8845412472036
205.2383463884846
203.1522459026728
201.325922165155
199.772578884469
198.4308566782177
197.2482733232394
196.3026667276623
195.6790547820077
194.2469377803259
179.9343058844156
206.019633098508
236.6553204576291
232.9884107392947
234.4926566449082
237.8803304180881
240.4595421091028
238.8964467524387
236.2856407138788
234.5142892676562
236.0248922154931
237.1979730925734
237.761841370679
238.0131655153473
238.0215286244706
238.2077319347814
238.216051030364
238.1377508445183
237.7338535652753
236.5492288293217
235.0218866842549
227.5208621557175
205.2105689598818
181.3661218721137
244.5274222536307
287.0190859864085
273.4326704365757
263.5715058632211
262.7861274294065
261.6986120841475
260.5694044393431
259.1921375006344
257.8115548977893
256.2272282792034
254.4596673632281
252.5482937176345
249.7837823395749
242.9583154418526
229.0062698341099
217.6546107318259
209.2019309970977
205.5672168398192
203.464504777506
201.6870107028338
200.1582898355275
198.872217577538
197.7564162906942
196.8249292748106
196.1837540872921
194.9896406419446
182.1842930910678
207.0577350859461
241.4526309238836
235.9569695281762
232.7420694204811
234.2611259283694
237.6571728352113
240.2382138069074
238.682564767991
236.052202552823
234.2878047135071
235.7723284552402
236.9354384321764
237.4787503638528
237.7157192961422
237.7095711951003
237.8999733627296
237.9662733956121
237.9178564820988
237.6109729254491
236.6040805871525
235.2754014552615
228.5438343282721
208.2973790335494
183.5166592467927
242.6072280525428
285.5740448333493
270.8586543475883
264.668973151646
263.9376901492183
262.9796834582148
261.8446331228332
260.7216571405595
259.3676040436708
257.9859986643885
256.4150275346021
254.6676045635124
252.7599943875528
250.021585786185
243.222486351384
229.3083298399915
217.9523293678007
209.5180693035192
205.8738583601968
203.8052702987601
202.0536134406472
200.5889856628139
199.3680213371718
198.3379027853888
197.421212038288
196.7523694619239
195.703035303583
184.3355677257344
209.4999157050553
243.959490067113
240.8495862219999
235.7245418707781
232.5164953889483
234.0542032121928
237.4046759911017
240.0094754004782
238.4622848403501
235.8216338705706
234.037478048209
235.5043358345098
236.6529137669465
237.1841485793139
237.4022156413089
237.4141845746944
237.6431917783793
237.7489370845738
237.7783631904572
237.5784673745101
236.7486481502584
235.563943911164
229.5434143543483
211.1986503399034
185.925804432432
241.5293128178533
284.115457931397
268.3038036971517
265.7305424395535
265.0305916147498
264.1280481726098
263.1545689173465
262.0165679871121
260.9010381906839
259.5558006204494
258.189388331883
256.6268472603895
254.8889802943687
253.0000093264725
250.262146252222
243.4822496453702
229.6210124985604
218.2961639124702
209.8798967904628
206.2296164940428
204.1360038119562
202.4592055510859
201.0692168455227
199.9348810982797
198.9929022265916
198.1099868026989
197.4025972580285
196.4068527309394
186.505850709995
212.7264821939798
227.0877196840278
243.0677312563165
240.5748624672792
235.4932915039722
232.3186348115914
233.808646721693
237.1806117956239
239.7666668546625
238.2225846329996
235.5699676353668
233.7804556897205
235.2261788030279
236.3645213656264
236.8829390270373
237.1065854494231
237.1690436274939
237.4221309003974
237.6110085741162
237.7183740850343
237.6115686281708
236.9363008650152
235.8697960671262
230.4857643392957
213.8507787460489
188.4668589435642
241.3619605269356
282.6015652310982
265.6054317244626
266.6642147690782
266.1028527438532
265.2273359253693
264.3098987890698
263.3326373003118
262.2105689158909
261.1040096891455
259.7664058748356
258.4034684252078
256.8588117951027
255.1243809801727
253.245779155895
250.5234626404103
243.7526267223729
229.9342166781008
218.6252839820528
210.2165913583621
206.5589365172423
204.5133805417516
202.9076958997773
201.6164622325305
200.5672904974709
199.729211838106
198.8882375037876
198.1322778151573
197.1277915499717
188.5278436987156
216.3809577160793
206.8431048863004
226.3679455544304
242.9460538829136
240.3643602703778
235.348894987431
232.1009471043339
233.5988529223983
236.9183304441545
239.5084900919585
237.9716138575951
235.3074540683275
233.514982868605
234.939467061598
236.069882599751
236.5873985946991
236.8650914266913
236.9652464315095
237.2783842863301
237.5479383954506
237.7142361908479
237.7089326094618
237.1377821374811
236.1696888794662
231.3470649490053
216.250524360784
191.1394756599568
242.1736131553149
281.0010394832051
263.2784271441295
267.5864929277933
267.0432760553296
266.2942967508311
265.4016815481837
264.4845593203997
263.5393718953893
262.4118562907709
261.320598202431
259.9956318306458
258.639846755941
257.0968306384725
255.3783580908326
253.5005636554592
250.7808758623213
244.0404018360025
230.272166891713
218.9767777371354
210.6022381212771
206.954351074075
204.925472786196
203.4160733183082
202.2204048014483
201.2782513523501
200.5300395745298
199.7635502689414
198.935941576814
197.8917492774019
190.2945096859817
219.8842040028229
200.063237003164
206.6617918356378
226.2188730172545
242.7988162842696
240.1724013736605
235.136427538016
231.8999975906866
233.3664992198089
236.6920255407696
239.2546876439221
237.7129300600732
235.0435309954727
233.2554874619972
234.6633376487916
235.7848986962566
236.3514008375952
236.6673045032584
236.8408521208756
237.207313625553
237.5393385299318
237.7413642413379
237.8020764224583
237.3320529171902
236.4615065904059
232.1168783003471
218.3715126300455
194.3969780353231
242.338519994458
279.1544009504315
257.1583039465663
268.4419826013046
267.9773557693662
267.2401001657814
266.4822759276296
265.5930642052123
264.6807527368411
263.7455263985156
262.6385931578589
261.5559569599525
260.235281913091
258.8937266006986
257.3564397049365
255.6427218172402
253.7662741784397
251.0438965218587
244.3275363868885
230.6137348714792
219.3447046141441
211.0067804790062
207.3797611554122
205.400582011221
203.9745545754148
202.8961950550033
202.0483736681269
201.4030893375223
200.7192472138756
199.8180680787592
198.764232297419
191.9522388017766
217.5517684141965
203.7502996580982
199.8914399241131
206.5488733628468
226.0363654543558
242.654697101044
240.0209419610116
234.9979135873901
231.7007637388193
233.1566644267255
236.4478726179666
239.0133542932981
237.4611284997107
234.7990830183386
233.0166080360685
234.3948765167543
235.5574593513934
236.161128713579
236.5492518970892
236.7886418072516
237.1866560392209
237.5655577012891
237.8123536092014
237.8709102501269
237.5095574797696
236.7313452912047
232.8058405659368
220.1798065904319
198.3988542219477
240.831172975511
278.0789564104535
267.3570076350503
236.7463202197694
269.2553548319992
268.8470095822891
268.183297367424
267.4279735263142
266.6641797792886
265.7884295020855
264.8970438912748
263.9771634176921
262.8787929252091
261.8032288861115
260.488282980885
259.1562872880855
257.6250131198179
255.9102082248804
254.0346950789553
251.3077365137448
244.6003101987975
230.9532888352297
219.7329787627626
211.4971292540509
207.871943738015
205.9275343141474
204.6015007180826
203.6240431269572
202.8933941363428
202.332942971038
201.7289188575984
200.8137642895369
199.6399662773565
192.5845114705325
202.7964920783367
208.9695765667936
203.6204756379597
199.8872662418423
206.4867190046365
225.9621038663186
242.5834156253559
239.893487365459
234.8687624179105
231.4994868465567
232.9806769674251
236.245074670444
238.7943630192692
237.244698166209
234.5808301806287
232.7977521351058
234.1882314924022
235.3820631283225
236.0507897114035
236.4995965684781
236.7880282380686
237.2006540345733
237.5766753821322
237.7782198139359
237.9204375995201
237.6587781773719
236.9936560130479
233.4047732069002
221.7020768800645
203.2899317047107
237.6597841621926
264.5940757356955
266.8207638705302
236.4563273252818
270.0257744333331
269.6771555988317
269.055984152805
268.373500150883
267.6229461166706
266.8713485654634
265.9972397059523
265.1212337237607
264.214053980833
263.1273743184955
262.0597505538207
260.7553973785768
259.428247928441
257.9002043232609
256.1836781345745
254.2990108630642
251.5653004312881
244.8763010674157
231.3226833268989
220.1662444115235
212.0167661188737
208.4213826596359
206.527559003756
205.2855975339377
204.4228338584175
203.7931691091907
203.3243441726827
202.8037452540343
201.8098410019704
200.8619759897283
196.2320889777896
200.8498849053735
213.0517379479734
208.8591702493928
203.5919853248627
199.8640567864906
206.5711318423416
225.818917862015
242.4885287629467
239.7829951000499
234.736155580877
231.340022688373
232.8181249095525
236.0774741927063
238.6179822572954
237.0737078175897
234.4032857488624
232.6495446106273
234.0378734366068
235.2888383648445
236.0025044833394
236.4980661803891
236.8227966364128
237.2098562607286
237.5926949797401
237.8081084874709
237.9474968477986
237.7808436081787
237.2268899060068
233.9047779286715
222.7815290891072
203.0013015896799
235.5026719755868
228.6778663792165
270.5347079940325
271.7282007271348
251.8167885651863
223.4978037127468
240.8190269649639
270.8026300884582
270.481673164492
269.8917300154629
269.2457540611527
268.5658779947357
267.8313895150604
267.081420270588
266.2284525164503
265.3671610581189
264.4688652259356
263.3915292825242
262.3304483980626
261.0292757828895
259.7063600666376
258.1743784746718
256.453218205551
254.5598083187253
251.8070719983112
245.1400313521074
231.7112746631851
220.6512237697594
212.6296124159487
209.0397579334252
207.1996853618813
206.0473944200671
205.2877180367912
204.7768536718629
204.3908373429275
203.8593551880711
203.1462097651395
202.1653299594683
198.7467062597531
199.1071687447925
215.5549296400284
212.9446164067707
208.8222527458893
203.5516719330377
199.8602706776933
206.4440576924027
225.7920123699701
242.4050420041932
239.7131427574373
234.6589182255128
231.175329364353
232.6962266271392
235.9183427574858
238.5070856927928
236.949410421052
234.2967058525367
232.5667748459369
233.9657977068364
235.2482223420875
235.9994587997766
236.5310710926219
236.8503914213385
237.2026756407786
237.57403187034
237.8065585501386
237.957907823553
237.8685217286429
237.4013958467142
234.2164519821279
223.0436628843797
203.1506561738308
217.9757756584239
236.5828458042714
232.2424105044969
259.0620459164356
273.6495702932376
251.1583996499609
225.0543664983246
238.6487844376354
271.6101927475054
271.2334055732993
270.6895009265133
270.0795978797805
269.4360689526351
268.7736304786749
268.0453391423325
267.3147656197851
266.4738627403601
265.6176775035216
264.7267448074799
263.661454488036
262.6077534289345
261.3119886511907
259.9839854296454
258.4499317883333
256.7163411635787
254.7993514871247
252.036929034804
245.3975124282196
232.148643118729
221.1967100822136
213.3077442385434
209.7386394985299
207.9616390480568
206.8995305227371
206.2598690798945
205.8441633911058
205.4443962835319
205.112774761732
203.0814389483081
204.9221575418571
202.4550575357668
198.3400906137367
198.8847122985852
217.9338492738084
215.4599006237133
212.9286191802357
208.8394515985497
203.5882017688087
199.838559844545
206.4696186877811
225.7329455552111
242.3817251193529
239.6456577900212
234.5890304461284
231.0561054073366
232.5858598499986
235.8265402602316
238.4374818030721
236.8887504398877
234.2585004558354
232.536482185116
233.9421301360235
235.2501708434513
236.029392100046
236.5528196584539
236.8669701056586
237.1895787104313
237.5346329011721
237.7880766602104
237.9775531365013
237.8939613265134
237.447750476249
234.6142998895562
227.7342438339671
209.6770318400901
220.8191874472254
239.8035544337506
236.3557450672824
223.4294770964022
264.1466683749666
261.1892905272049
271.9703740966651
241.634392231459
210.063277252417
236.369830666588
272.2730900966095
271.9671366646279
271.4512764757121
270.8807828376677
270.2782752810869
269.6518430904392
268.9879777844622
268.2821259532883
267.5614318301991
266.7329894342544
265.8839366005496
265.0034692292177
263.9421065988171
262.8912811758524
261.5925994968035
260.2583586865424
258.7123786567948
256.9611609351155
255.030731318145
252.2404209350786
245.6621684156121
232.6128177577883
221.7965127251682
214.0631711855383
210.5349424369666
208.8349840386274
207.8823344972857
207.3279275757147
206.9521043438396
206.7249389318062
206.513971629627
204.445953728301
206.1663973802872
203.5251567336506
200.0977981731744
199.2970758224852
220.3463296495669
217.8337361309254
215.4472807865133
212.9042838635182
208.7963724528714
203.5336150751184
199.8322354158756
206.4214841578371
225.7415895385638
242.364948631059
239.62290121546
234.5739023331591
230.9839528936909
232.5308107074395
235.7659972523325
238.4133091642696
236.8892198349796
234.2880746670583
232.597906943617
233.957945278688
235.2832495125574
236.0429398084728
236.5609558527311
236.873018796655
237.1630498793644
237.4747252053492
237.7313003942564
237.8977117584573
237.8516911285426
237.2771834620631
233.4612258706357
236.0026600364473
226.0373636218667
220.1846965469435
208.1330970226968
241.2599045635598
242.6438167843278
222.7660316180023
258.6079138498603
256.0809722389631
270.6737057875911
239.7447814723812
224.7244292043416
236.0185762966386
272.6576086241775
272.6030640958787
272.1682963549124
271.6291125263183
271.0707783731201
270.488713268878
269.8679461998228
269.2216965449332
268.5302894280441
267.8200866114273
267.0012361166943
266.1568935754145
265.2801142801693
264.2274941168362
263.1741905667164
261.8686179544945
260.5259710953281
258.9611971183064
257.1928131150129
255.2331321605894
252.4297571454604
245.9235151121679
233.1010666874564
222.4549004365872
214.935336035437
211.4818140426743
209.8467402939703
208.9831230886221
208.518606487118
208.2472276565711
208.1489957493964
207.3685679509088
204.3545370038218
206.0238644992121
207.3135040350403
203.9462992084587
199.701716433577
203.4814221298672
199.0799447523623
222.803690907296
220.2677179728529
217.8199197131551
215.4248110676131
212.8953276286844
208.7950567423461
203.5505301010203
199.822479122132
206.3946270847994
225.6936040098127
242.3506408377118
239.6171318509513
234.5867786100983
230.9363488557436
232.5083695627594
235.7370501400189
238.4189367421791
236.9463759685512
234.361906500421
232.6956194573655
233.9916820153597
235.2933759053519
236.0420004332134
236.5569679950348
236.8632554728842
237.127364470667
237.3956500361555
237.625815745607
237.7086881082784
237.6561882433982
237.4920058024314
234.8997964208178
236.1148198455701
227.4231568943522
224.0904867826735
211.6585986364313
240.491495105831
234.1640253941036
215.6850439290786
245.0814800594823
265.79445735817
263.6315768484183
243.7068754472546
238.9825985287398
215.107646825604
273.3605181464317
273.1355511877059
272.7777292774328
272.3341487704295
271.8104452609651
271.2871081176984
270.7103295873148
270.1068287551161
269.4717840874026
268.7930239768186
268.0892071978652
267.2811277616668
266.4438168537567
265.5677797057613
264.5118497093804
263.4524385291076
262.1361994667623
260.7744446930032
259.1942451518393
257.3972097918561
255.4247106451575
252.6125618869006
246.1950468819346
233.6420697679862
223.1904966205541
215.8978029230759
212.5616926275574
211.0191412204803
210.2636727441691
210.0444588116046
208.4572726831245
209.8199747849572
208.8825134219092
208.7354392217022
205.3703494828474
206.9167771009422
208.115424649048
204.9699462451315
201.0701366193131
204.5886926618411
199.0008637914021
225.1458753525501
222.703732093685
220.2551972769475
217.8008819686745
215.4169473119112
212.88564134727
208.7893212517244
203.5247882970889
199.8197471221918
206.3587139534862
225.6921903167125
242.3651363660805
239.6380655398001
234.6366920344482
230.959406265649
232.5207689619507
235.7462522230047
238.4386834705909
237.0347550189755
234.4562084662334
232.7604144533454
234.0017532886493
235.2897255797535
236.0267105951115
236.5348458979178
236.8388976412409
237.0757609735469
237.2735721612204
237.3875668013954
237.4396483725531
237.5633384773654
237.4607669707052
237.455162666697
235.127183923256
236.9211641739639
231.7797391157621
225.0520322214005
222.3254530982399
239.9457199942905
238.1203509605081
216.2643402334233
241.9142984942931
265.1942109799769
260.6664834294733
240.3771728825216
236.7975612356852
211.5629678501905
273.9210747622056
273.8172332286389
273.3790267633345
272.9590268044954
272.5114394029312
272.0178208863534
271.5002397824757
270.9456464308721
270.3520122115989
269.7351837163571
269.0609677272133
268.3727760320483
267.5631700458846
266.7328332345236
265.8550178170655
264.7923595344072
263.722630963856
262.3871266421777
261.0111840974672
259.3993204598758
257.5907015528202
255.601765307378
252.7798926451135
246.4686184422626
234.2267967344835
224.0087244875474
217.0057015634716
213.8030739854446
212.4573288855619
211.5409351968087
211.4055328409875
209.5204550539754
210.4353649865976
209.6544130890795
208.9007538128314
206.6252775199237
208.0659725725782
208.4418550893247
205.7234073477871
204.1980260781384
200.2785428068282
205.6167696867418
201.7743590677696
227.6886644849311
225.085674233142
222.7124232207212
220.2286690407961
217.7936000034226
215.3979921093066
212.8624337592426
208.7921953030964
203.5328220105794
199.8135434959251
206.3204673285148
225.6876885261357
242.3684231825445
239.6857823637417
234.6898149882477
231.0291734428639
232.5611542128356
235.7881335203835
238.4895956823264
237.1444620450468
234.558861911891
232.8324627316103
234.003569809851
235.2704222593943
235.9914686412789
236.4948932948566
236.788981754381
236.9823069591625
237.038632918762
237.0798362123452
237.1235668660644
237.4605176265189
237.3706365236139
237.3967570720557
236.359018727202
237.0355858285761
232.5925414974627
229.2088172500382
226.2527925637551
239.8674881399826
232.4432781861834
220.1521147854468
215.2788026168537
242.6723776862218
255.4234928885132
264.335303469742
246.4165562151179
238.7597670053626
238.1959559299303
229.5685192034669
274.5113032289595
274.3950961951624
274.0479139867029
273.5913654268876
273.1540286856688
272.7130853022567
272.2379777341899
271.7367119745953
271.1944098232261
270.6185636000054
270.0092339082891
269.3450772487796
268.6630873334083
267.8555053530633
267.023105244933
266.137704322428
265.0649974627556
263.9752014448652
262.6254906418332
261.2170376610322
259.592666130047
257.7709797354596
255.7649190880309
252.9390753599303
246.7460397957642
234.8671211121255
224.9560738996806
218.2399493388257
215.3011370097212
213.8591824283784
213.2143878037865
212.5787388249483
211.9208227169402
210.7452260642731
209.7287211392175
207.3737085455491
208.6052951459027
209.3760345941178
207.0019930805508
205.3834600867427