/*--------------------------------*- C++ -*----------------------------------*\
| =========                 |                                                 |
| \\      /  F ield         | OpenFOAM: The Open Source CFD Toolbox           |
|  \\    /   O peration     | Version:  v1912                                 |
|   \\  /    A nd           | Website:  www.openfoam.com                      |
|    \\/     M anipulation  |                                                 |
\*---------------------------------------------------------------------------*/
FoamFile
{
    version     2.0;
    format      ascii;
    class       volVectorField;
    location    "5000";
    object      U;
}
// * * * * * * * * * * * * * * * * * * * * * * * * * * * * * * * * * * * * * //

dimensions      [0 1 -1 0 0 0 0];


internalField   nonuniform List<vector> 
18230
(
(-76.60381463331686 -31.94294709866293 1.356972608089142e-13)
(103.7428576299544 2.597364642241714 4.399417978213532e-14)
(-15.70981222511415 -12.79786307396473 1.448787281475273e-13)
(-68.85768149110895 -28.74610835870179 1.420629880458159e-13)
(507.8217211023065 -161.6562592682192 2.490508408423265e-14)
(137.5937698692267 2.398822896711721 5.227261057208398e-14)
(-8.06798314275397 -14.47351860024662 1.277465656850213e-13)
(-13.80053317333595 -10.63115110430143 1.394780212298922e-13)
(-66.06289515738102 -28.07108247283783 1.426544781804224e-13)
(370.2603228243758 -265.7238189797179 2.681077478700314e-14)
(519.8206156448877 -167.3445991519687 4.111621155757528e-14)
(147.0356549237586 -2.317915031600585 5.468240616483783e-14)
(-70.96050093284806 -338.2419759399672 1.344279395664594e-13)
(-5.616734706142006 -10.87726682722836 1.267929525963661e-13)
(-12.41256950050393 -8.562487204815032 1.456598301974251e-13)
(-62.45110135799704 -26.73694447825338 1.439917321186347e-13)
(318.7478023015765 -278.425225700502 2.491246287827814e-14)
(381.1190965289074 -271.0437711883221 5.355044662231773e-14)
(517.0890934325346 -174.0367606489401 4.556481971312206e-14)
(161.6776708393698 -6.158128962631816 5.591709832504003e-14)
(58.77912928099897 -470.2973968037241 1.351927122045736e-13)
(-68.22152461959304 -335.853718599271 1.392473446799462e-13)
(-3.377636838866545 -8.874006736991022 1.292714778902483e-13)
(-10.73684485234833 -6.184375843407648 1.468503933866583e-13)
(-59.98446901304732 -26.13669938084367 1.461919630209344e-13)
(316.5473562004007 -278.6270270575813 2.339110232991112e-14)
(331.2926069930661 -285.4252558189372 5.627444761015497e-14)
(375.8958205463827 -269.9097585014134 4.824808935146002e-14)
(515.6208781641424 -178.7483143774464 5.059720739614054e-14)
(172.3379020358786 -10.49402443081265 5.727761807592021e-14)
(161.0823412045317 -327.2477740506237 1.370502228494862e-13)
(59.74413585178448 -469.4010372834869 1.474893169008599e-13)
(-62.09088643719575 -336.4799206116845 1.430923051761329e-13)
(-1.032420023839079 -7.001295773240523 1.312362598672063e-13)
(-11.09264166483373 -5.300435090264278 1.492305103095193e-13)
(-56.74195811294447 -25.17662295897298 1.463909913022516e-13)
(313.0003244927481 -279.7630327975513 2.146086630761632e-14)
(329.0734031136276 -288.968775754437 5.692830255693765e-14)
(329.3236674346612 -284.2657608733535 4.587605025418637e-14)
(378.0745662898493 -272.663654681388 6.080754512578236e-14)
(512.8454041023272 -185.1674149659733 5.405112504567881e-14)
(181.3378136810393 -16.43160711034904 5.844534889459854e-14)
(157.9368380377715 -247.4226486862848 1.368246543875132e-13)
(157.2577247104188 -322.0863153000884 1.514753911561214e-13)
(63.45814949227969 -468.819883053501 1.500629024940222e-13)
(-55.79573464359321 -335.8049908462288 1.456677279177331e-13)
(-1.75694130564677 -10.67870006036182 1.336404813750745e-13)
(-9.666038792315481 -2.752433038178875 1.506149670540678e-13)
(-53.96886078648549 -24.47313824997084 1.478306739384063e-13)
(307.2782915249406 -280.0257729935051 1.838784276362018e-14)
(324.9192729019091 -289.8753818766787 5.979611788496891e-14)
(322.85975353189 -284.3513610474283 4.541799060956305e-14)
(333.9276174967245 -288.3585323805952 6.494733064729423e-14)
(375.6119719165912 -272.9908767753353 6.048031150504091e-14)
(509.7282293414527 -191.2007112582921 5.823228246792253e-14)
(189.167994750773 -23.60792531485666 5.977225671270117e-14)
(158.1489719677799 -246.9546693904265 1.376667991052722e-13)
(161.4603418061884 -256.357678216923 1.530838106924315e-13)
(157.2347974741511 -321.4611738604848 1.503264523858408e-13)
(65.13305930137606 -470.2062552202269 1.533268583021069e-13)
(-48.81821397583933 -339.168311638306 1.478690820953148e-13)
(-1.229967451448915 -11.96661678649827 1.359171357476674e-13)
(-8.80630524072004 -0.496582239524677 1.520858797821955e-13)
(-50.3254876513769 -23.60459988807234 1.483170324689524e-13)
(300.7472136110608 -280.2941920905197 1.370922936019637e-14)
(319.3264553116528 -290.5160044173273 6.086777593741208e-14)
(318.9369603263928 -285.3091813230187 4.507870384474222e-14)
(328.8312242357791 -289.3585321073094 6.554264386433976e-14)
(332.0133894880753 -286.9613285707176 6.053667820744801e-14)
(376.0678017065945 -275.0095076855461 6.873248244820167e-14)
(506.0292646851763 -197.8362580392552 6.246045094394177e-14)
(196.9666715484323 -32.22019821725101 6.124924876373248e-14)
(155.7273134246487 -239.6325694502523 1.382483778015323e-13)
(159.0416335194041 -248.6143974378378 1.527118290859247e-13)
(162.1467974119632 -257.3967545142494 1.497676949911975e-13)
(158.1099213944338 -321.8438160498359 1.56828408105741e-13)
(68.41711276108151 -469.0540140232287 1.546189849952818e-13)
(-41.1710819901984 -342.4457186924504 1.49860472375086e-13)
(0.1655218474895597 -13.34309033145515 1.379782336497389e-13)
(-8.18166406138581 1.905329894987999 1.528084252105278e-13)
(-46.15767592899775 -22.54600849200747 1.486202190691551e-13)
(294.086294660103 -280.8202049160495 1.242703282070598e-14)
(313.0499473461974 -291.0809338976491 6.168399131093169e-14)
(313.2985953143726 -285.926310358018 4.498005372045119e-14)
(325.0011727910533 -290.3842620224489 6.772724544193929e-14)
(326.3938387032057 -287.3450386589478 6.028002965521233e-14)
(334.5280285022785 -289.2980952547068 7.312057521401535e-14)
(373.5522176373396 -275.9946375636183 7.120929297941501e-14)
(501.842254432477 -204.7196888837466 6.679115470010089e-14)
(206.6913346513204 -42.34915156085713 6.277162561111752e-14)
(154.2137961456264 -237.7945749094327 1.35988352627852e-13)
(157.4737107075494 -243.0081991667928 1.53087909959326e-13)
(159.3539775953369 -249.0560146967988 1.491047133350835e-13)
(163.2355661224872 -259.1261277196691 1.580370599678352e-13)
(158.5037866666887 -321.3007339149837 1.556368517733845e-13)
(71.45653730372453 -468.7902325185996 1.582869408985252e-13)
(-32.20845504704202 -345.4125025279761 1.518324417479149e-13)
(1.243624922297736 -16.02592207513166 1.399852952734096e-13)
(-8.380071911559785 3.444700235095377 1.534113168086345e-13)
(-39.88660159072561 -20.90664587938566 1.479945590217771e-13)
(286.2158608626665 -281.1816844154778 8.199427429778764e-15)
(306.5140145175527 -291.7941205466782 6.409063562183961e-14)
(307.1691269628705 -286.6496062932758 4.43701731596287e-14)
(319.0842869528327 -290.8661374826411 6.785090210797999e-14)
(322.1116344395153 -288.173632874763 5.982474035764325e-14)
(329.5807671349712 -290.2627896681335 7.351678428489379e-14)
(333.4931655536645 -288.6205449945891 7.135212174863311e-14)
(372.6925966083699 -277.7401392345691 7.665816209375014e-14)
(497.1073933779876 -211.6072291747454 7.103032837287723e-14)
(217.7951009152716 -53.72770111669811 6.427217798639693e-14)
(154.0955042436219 -237.7927891053638 1.346474823217088e-13)
(157.1178841975399 -242.3441741969691 1.528101513075971e-13)
(157.7457375484567 -243.4320775479511 1.484045737809121e-13)
(160.67795276871 -251.163782059264 1.579667131822904e-13)
(163.5408472132065 -259.7025333931226 1.557469919839898e-13)
(159.4495141834752 -321.6761065727253 1.634922789396155e-13)
(75.54906410579692 -466.515298960902 1.602661838880201e-13)
(-22.060629154083 -348.5644815123449 1.537880863860279e-13)
(1.170651251111929 -21.53556995371072 1.420149675468015e-13)
(-7.766051627574906 6.087642209895954 1.539600474227482e-13)
(-26.34990662331595 -16.94838635304307 1.406575651176115e-13)
(278.1356079753568 -281.5769820230577 2.836216124800751e-15)
(298.4687636295473 -292.2426405085372 6.623784580853643e-14)
(300.9375635032737 -287.7718957330167 4.408275706697333e-14)
(312.8911826309363 -291.6011279787892 6.864808355819545e-14)
(316.5704439375454 -288.8420241941981 5.97449947414548e-14)
(325.3955263377415 -291.1521270833316 7.441268354621634e-14)
(328.3196510090106 -289.2272066260509 7.157929810671682e-14)
(334.8624704385818 -290.0701003085151 7.959486381698903e-14)
(370.2173560780011 -279.1679098527635 7.982957601400056e-14)
(491.740858479433 -218.8568777239249 7.529612621226553e-14)
(227.4819574409821 -66.05730251334762 6.616511842494571e-14)
(154.2917612819461 -238.8439314620095 1.358876050846405e-13)
(157.0433767915779 -242.7177859510203 1.531036962110883e-13)
(157.1148241068961 -242.3075945819436 1.479132953258705e-13)
(159.1789971321052 -245.6372589640094 1.58201998086078e-13)
(160.8017770903515 -251.3728906477919 1.551904730676378e-13)
(164.7863860537726 -261.7099545177707 1.650885296789296e-13)
(160.0429882199637 -320.6003005114895 1.628202456632293e-13)
(79.69563806141976 -464.7560165328238 1.64127415134465e-13)
(-10.75596715474155 -355.1689588871104 1.561006413645402e-13)
(1.62873866924803 -28.07333392521803 1.439548794624062e-13)
(-6.14532174327066 9.471384407460588 1.542558127197781e-13)
(-12.1945572652265 -12.76996285224692 1.313459005343501e-13)
(267.0049375390583 -283.5141743526069 -6.542382868431512e-15)
(290.1381411567226 -292.6349396345096 6.936567973802633e-14)
(293.2773424876435 -288.535451386853 4.390562541536427e-14)
(306.3445473738483 -292.4190633686055 7.12575955880749e-14)
(310.5832416029698 -289.6739730188513 5.986670229641141e-14)
(319.7381935096599 -291.8232175767164 7.494201381644602e-14)
(324.0418607631491 -290.0504703945531 7.148213849061537e-14)
(330.0794643172936 -290.9634112636043 7.956915800120856e-14)
(334.3339758032011 -289.8914990317884 8.104148149124327e-14)
(368.7571421680631 -281.0834992753163 8.409304917339664e-14)
(486.0116247322621 -226.1671203706198 7.956437510790141e-14)
(238.9778570725485 -80.38350524321149 6.841053862790645e-14)
(154.8220714940269 -240.596662530183 1.352127734649386e-13)
(157.3440932384654 -243.8992034086374 1.532458148109907e-13)
(157.0849959092112 -242.3507988268779 1.473359525437053e-13)
(158.7754839673496 -244.8957736664176 1.579838102640486e-13)
(159.4184502255014 -246.056964506965 1.54646398690877e-13)
(162.3938362885448 -253.8697966589421 1.653631814224434e-13)
(164.947334573772 -261.9802117699093 1.622891937595247e-13)
(161.0780834755404 -321.365431545483 1.708081948419468e-13)
(84.07785923408294 -462.5640653381614 1.669009743739443e-13)
(1.443128499399225 -361.4608904158561 1.585303126164503e-13)
(2.587073635087334 -36.47444026295489 1.46017785011374e-13)
(-3.83822495668137 12.91343629086919 1.541704282743086e-13)
(0.9529774240694318 -9.511350753960233 1.199091626883304e-13)
(240.5198444421043 -284.6526635612677 -1.198512118192272e-14)
(277.4241712638495 -292.9414781852889 7.309660256701828e-14)
(285.4950731503377 -289.3034079955739 4.380209868615284e-14)
(298.3618713986953 -292.9535843299885 7.323019582474663e-14)
(303.8242852093566 -290.3494288134216 5.971898812486941e-14)
(313.5713106497764 -292.5858293365059 7.523984317510398e-14)
(318.3742548471841 -290.6765261611021 7.14205012405247e-14)
(325.8554763001859 -291.869998676816 8.014119765683581e-14)
(329.5074370989429 -290.5370370236633 8.136414409206007e-14)
(335.2664918962149 -291.0705697496857 8.655833143282923e-14)
(366.0776513819549 -282.6919902886462 8.805974242197597e-14)
(479.7169740742503 -233.2821794806674 8.384138662285572e-14)
(249.919223638331 -95.80833716211434 7.095199366436804e-14)
(155.1280861073769 -241.5645104199562 1.309836941558009e-13)
(157.9247969372553 -245.7086443908994 1.540484602311301e-13)
(157.2314629667844 -243.2064380469968 1.468406502192437e-13)
(158.8109741094078 -245.2164591977514 1.583750898504249e-13)
(158.8455404526167 -244.9686210700889 1.542452213586465e-13)
(160.9696138265793 -248.4132167481731 1.652484565302539e-13)
(162.3948589043621 -253.8782359667726 1.617527208505405e-13)
(166.6158600743658 -264.6160081271315 1.735442307974813e-13)
(161.8092249843171 -319.8894695832514 1.708313742166398e-13)
(89.18907316082614 -459.7578830278507 1.720742699432279e-13)
(15.18448885953908 -370.076291385387 1.615883722342011e-13)
(4.832301322736757 -45.24398464304428 1.483316013673083e-13)
(-2.029562124619514 15.24911519773355 1.543861882782223e-13)
(14.39294707915766 -6.516996151044173 1.088093812333752e-13)
(205.3839844372331 -275.7222321122109 -7.786958499680266e-15)
(245.9108587432756 -289.0020800613524 8.366232474773803e-14)
(273.1401117905921 -289.8531794079242 4.179538838901937e-14)
(290.0381055936049 -293.4347232069279 7.566601992346086e-14)
(295.9946048371027 -290.972102835915 5.983984456475537e-14)
(306.7883926260852 -293.2307125498752 7.604655769335549e-14)
(312.3191693552959 -291.4767191176622 7.160983026798663e-14)
(320.2003633935332 -292.5557924104929 8.059557260016994e-14)
(325.2118722048166 -291.39259796571 8.163418786183283e-14)
(330.7389908623742 -291.9014266705231 8.623575930392813e-14)
(334.9872089844541 -291.1819176370197 9.031670101017717e-14)
(363.6219661054597 -284.6485001230719 9.215341387219738e-14)
(472.7685993166082 -240.4007977277284 8.848272516714276e-14)
(259.870338409609 -113.092243988301 7.362206776434281e-14)
(155.4979489038576 -243.3328828508849 1.309915234563052e-13)
(158.2617401827833 -246.6981411706473 1.55538612800789e-13)
(157.7654845928425 -245.1938348754612 1.461784044267069e-13)
(159.170856494851 -246.4810363172339 1.582614743001209e-13)
(158.8178703400576 -245.0525401578459 1.536253136034803e-13)
(160.6087012556253 -247.7373443752589 1.651412248515712e-13)
(161.1427416181338 -248.7642779342137 1.614668658186716e-13)
(164.4214118268227 -257.0801873101712 1.738068336101279e-13)
(166.6728790628263 -264.7510129344595 1.706285739178932e-13)
(163.3827918361428 -320.711418615639 1.815409288624216e-13)
(94.39307049089739 -456.0614927004074 1.760407909207052e-13)
(29.62497893105254 -380.5823054725903 1.65033510620154e-13)
(9.068558029878124 -54.82547051443533 1.509046168646443e-13)
(-1.143375969146496 16.03754964800253 1.547633013575419e-13)
(28.6998615154495 -4.791538476157331 9.908370067130718e-14)
(165.1309636481181 -252.3534420351135 4.84858897509534e-14)
(209.6983035798301 -279.0809929037034 9.056568621881804e-14)
(243.869104198746 -286.8571814461824 4.183545905605183e-14)
(277.4929389743929 -293.8384019046329 7.86961293058023e-14)
(287.7889944316707 -291.4807497433899 6.05645540809388e-14)
(298.8934368412215 -293.8156282441224 7.676479022854785e-14)
(305.41104809364 -292.0241572242367 7.133368215713086e-14)
(314.1084294425581 -293.3565593243544 8.081095929499986e-14)
(319.5336569367957 -292.0410645734209 8.190164765069272e-14)
(326.4340042387437 -292.8006605232906 8.646024483357922e-14)
(330.4570525349333 -291.7623394270333 9.054432496925569e-14)
(335.6970249291613 -292.2731229343019 9.45563533641302e-14)
(360.6826365430815 -286.1652114093945 9.708044176796328e-14)
(465.3881458051743 -247.4158221888771 9.316360116126217e-14)
(270.990043375994 -132.0203019173504 7.650573606885856e-14)
(155.9835649582602 -245.7445426679917 1.300741022511255e-13)
(158.8676966179593 -248.7590065059617 1.562066136131443e-13)
(157.8393082558558 -245.6164635366958 1.432781456707194e-13)
(159.6982401752576 -248.3132012742904 1.58475606307027e-13)
(158.9366300094273 -245.8655788327931 1.531503485315332e-13)
(160.7033808652357 -248.0832514233344 1.651724505973547e-13)
(160.6299617391599 -247.7638883044634 1.611675483810853e-13)
(163.0724946872616 -251.6953083065919 1.734550676428107e-13)
(164.2572830030568 -256.818620715758 1.700518717611893e-13)
(168.9157685299631 -268.3340035119206 1.84807328916165e-13)
(164.0425989954163 -318.9271841102803 1.82207722231608e-13)
(100.1403407371716 -452.5256496518573 1.827824239687891e-13)
(45.91226100807453 -391.8208049878174 1.69400239817077e-13)
(15.41991701214214 -67.32127915612294 1.539688877768483e-13)
(-2.970804949639354 13.38703655453751 1.56835077333178e-13)
(42.02745784812438 -5.964694483783767 8.969836615681285e-14)
(147.44167108747 -230.9603899487215 4.887282331981033e-14)
(166.7777598812278 -253.3706251668268 7.640283699536595e-14)
(208.3050404688507 -277.7149169315915 3.978032988156448e-14)
(246.3608558429908 -289.6624967226783 7.934617267376198e-14)
(275.2140418227496 -291.9104973889229 6.059045098036859e-14)
(290.5711030587441 -294.29419749185 7.615368937303966e-14)
(297.5644356817396 -292.6345019529434 7.168894787991282e-14)
(307.2758054203983 -294.0104305480136 8.095515156378042e-14)
(313.4343088619545 -292.8155761419419 8.231668598215483e-14)
(320.7884385220681 -293.5014521472189 8.645920197828271e-14)
(326.1473885585649 -292.6694631080598 9.113257704563153e-14)
(331.4550603803618 -293.0380360964562 9.450111959955956e-14)
(335.5456285374733 -292.6527170138854 9.993277224555702e-14)
(357.9565397945157 -287.9437876588688 1.009162046486972e-13)
(457.4882373736521 -254.0029451384306 9.818904126197225e-14)
(283.2387680714362 -151.1228345818899 8.052024028685484e-14)
(156.3899138664557 -249.6445957465283 1.217879808008897e-13)
(159.5256767392731 -251.37857439705 1.543734797655182e-13)
(158.2348445244414 -247.6027952473726 1.417673676124088e-13)
(160.058516099512 -249.3070884637472 1.602247913948735e-13)
(159.4231209732843 -247.7928436657075 1.520368532041914e-13)
(161.0874405046469 -249.4242037995132 1.654482456805449e-13)
(160.5404543034616 -247.7669759022623 1.603112805597484e-13)
(162.8041285054196 -251.1395978210817 1.736536224297087e-13)
(163.1010305504915 -251.7936177066287 1.697609306432278e-13)
(167.0307804680085 -261.1726494087449 1.850646282451431e-13)
(168.7460486229218 -268.0126354118948 1.818020933267043e-13)
(166.1897464307328 -320.1419862947052 1.952354452949437e-13)
(106.2545328441539 -448.2616358442754 1.888554054785275e-13)
(60.80659420371698 -406.015499302606 1.745642490243366e-13)
(22.31438844793978 -86.81031510927423 1.577654780141587e-13)
(-7.677572207976101 6.780133336327497 1.603058867112355e-13)
(53.54028372935201 -12.06722543752562 8.538113893905713e-14)
(141.4091941093444 -219.6925542941504 1.128508673653958e-13)
(150.6171811324558 -235.8476755396672 8.15460260757347e-14)
(165.7122259404283 -251.9669936808644 6.247641941510132e-14)
(210.1774943362855 -280.0635869339666 8.142353168580018e-14)
(244.5969506322865 -287.7809489207515 6.382423006524982e-14)
(278.0476725037688 -294.6833075043328 7.722413372927499e-14)
(289.2740186805299 -293.1034049951454 7.284990683060617e-14)
(299.4567471905141 -294.633666734392 8.099659942043457e-14)
(306.5924609824655 -293.4364160665461 8.275343412622067e-14)
(314.7223141197475 -294.335595167385 8.64300599205398e-14)
(320.4430104554407 -293.3185755208067 9.157948730164958e-14)
(327.0939868145571 -293.9880913392407 9.461130771104885e-14)
(331.324928802924 -293.0834635843962 1.000637054474447e-13)
(336.0131171786406 -293.6233418321552 1.029081313182452e-13)
(355.07685037651 -289.4405087666994 1.061039125943468e-13)
(449.3742160529189 -260.4985070481816 1.03137006002024e-13)
(295.2727264806826 -169.6742018964334 8.53681803786973e-14)
(158.0024339570924 -256.1025352581045 1.160694050318867e-13)
(160.4657281187924 -256.0086543194235 1.512923367498805e-13)
(158.7181453164333 -250.1052004000033 1.404397218848576e-13)
(160.5189863566595 -251.2103461758202 1.597938442833623e-13)
(159.4590098459756 -248.1837339471245 1.499009122260401e-13)
(161.5684337046061 -251.2215501473053 1.658892616531101e-13)
(160.65573808299 -248.5060460455067 1.595516932244949e-13)
(162.9098326901453 -251.5425047790431 1.738555413053525e-13)
(162.5810054393834 -250.7969866582044 1.690781146077552e-13)
(165.8908799322198 -256.0500588423618 1.848957187598661e-13)
(166.5763566277885 -260.4507902168572 1.813550306970815e-13)
(171.7647756497247 -272.843095955799 1.994093129258215e-13)
(167.2208132940762 -318.1400450817257 1.986971945243764e-13)
(112.8202197678739 -444.6695043937277 1.970809999981579e-13)
(73.23284392578991 -422.1249609478639 1.811264597924876e-13)
(30.29793156574991 -109.7745940806014 1.621678405378458e-13)
(-11.5092863370027 -0.9743035091743183 1.65320115793184e-13)
(63.70478172766761 -22.54224999973178 8.583979704127687e-14)
(137.8714809377456 -212.9081775653443 1.033724829544884e-13)
(145.4957174728055 -226.5420987436097 5.284793778115288e-14)
(148.5479806216433 -232.5914808110949 5.691299147817734e-14)
(167.5371783766221 -254.6969184685296 7.782305429278634e-14)
(209.0450808452162 -278.6818028657157 7.200710216210202e-14)
(246.9075871195186 -290.6482832572093 7.69701117880298e-14)
(276.3959528951978 -293.2974440115174 7.328587979920601e-14)
(291.171316306821 -295.1403045474263 7.960493505744689e-14)
(298.7296406531412 -293.9949395342697 8.33707584522552e-14)
(307.9232710860903 -295.0127337379851 8.637975470852354e-14)
(314.3503941972546 -294.1091392089718 9.223833486522033e-14)
(321.4291704232416 -294.6859052419132 9.478729703283912e-14)
(326.9571533502334 -294.0529858936805 1.007246984410596e-13)
(332.0887089808512 -294.3073822517566 1.028869014120855e-13)
(335.8985718440841 -294.1989147108966 1.09040291512796e-13)
(352.5008243019563 -291.030329501866 1.096610936539744e-13)
(440.9418453730638 -266.8155587239595 1.081045742942173e-13)
(307.3861362984406 -187.932908174498 9.090426565146103e-14)
(157.325591086648 -250.6641681310342 1.367698355715037e-13)
(161.5253669970367 -261.8164863114623 1.535977994480291e-13)
(159.4964964767219 -254.4951444385107 1.383951405440646e-13)
(161.11124569856 -253.8789186364474 1.598658995185289e-13)
(159.8986628578872 -250.2251797374844 1.48475498388412e-13)
(161.9357618123036 -252.2044158567569 1.668140221797722e-13)
(161.1307522581211 -250.4456818399284 1.583169406888801e-13)
(163.2930325122583 -252.9071625744552 1.741111549696174e-13)
(162.458781489397 -250.756857266575 1.683400368602436e-13)
(165.5996376498865 -255.4573759654306 1.851006838127069e-13)
(165.668715036808 -255.6857084375891 1.812250941045525e-13)
(170.203303304254 -266.1000921661467 1.999491094199739e-13)
(171.7873423002032 -272.6463070652952 1.989223219504571e-13)
(169.6755547990404 -319.1823320778109 2.125867542570954e-13)
(119.8805061760259 -440.5762381021613 2.064826821676938e-13)
(83.59367870363576 -435.810513492643 1.89089722688733e-13)
(38.40524852884222 -136.8014406372182 1.675030573528113e-13)
(-13.26666948415848 -7.877793497547251 1.688410045522614e-13)
(74.80964073260954 -35.00887394578661 8.68177994459034e-14)
(135.0126036392202 -206.8078504836324 8.377316897868882e-14)
(141.9850106054827 -219.4363874262931 4.993216538944545e-14)
(142.7639676392446 -222.210382070189 9.564580718439012e-14)
(151.5437330170931 -237.2794678938602 8.661335029729593e-14)
(166.2140864052568 -252.6988625861544 7.049204308266296e-14)
(211.0398878924873 -281.2504123180192 7.670762721033398e-14)
(245.7671623551972 -289.2533850189702 7.754806069418678e-14)
(278.5882835387456 -295.5606214817369 7.836320274708024e-14)
(290.407562229477 -294.4362086042203 8.456147682242044e-14)
(300.1827297596647 -295.6547171826486 8.6064713351608e-14)
(307.5366899690658 -294.7563217637305 9.293261024007076e-14)
(315.3850757865495 -295.5174223844896 9.492368726076026e-14)
(321.2461177679081 -294.7094478767727 1.011511210105873e-13)
(327.5826239406723 -295.2741650192177 1.030001140727109e-13)
(332.026349269427 -294.532742062849 1.09213051336165e-13)
(336.0776803504071 -295.0783652837196 1.112351798054317e-13)
(349.9002897085472 -292.4139507242141 1.146584125748756e-13)
(432.5245533261281 -272.909975465642 1.126079211362531e-13)
(318.3335870193086 -205.16260639503 9.618758139417025e-14)
(155.7321018118822 -240.9228758723097 1.316842991373088e-13)
(160.8739722886568 -256.6121749189706 1.574382159036581e-13)
(160.8422736108242 -260.7093698623183 1.45786143531729e-13)
(162.0907995647863 -258.6812217511849 1.585797682489598e-13)
(160.4060174176771 -252.7659476284777 1.471289712952598e-13)
(162.4163757078105 -254.1803671002946 1.664621151671857e-13)
(161.1435275449956 -250.8154541230071 1.570954593572414e-13)
(163.7401205115317 -254.6532163740381 1.741648813899382e-13)
(162.6363830348337 -251.5883011821006 1.679695810243803e-13)
(165.6253475935185 -255.9328122113484 1.851162579121457e-13)
(165.2280478071214 -254.8238056445422 1.810913716379248e-13)
(169.2155391452169 -261.1611620766396 2.000074296962849e-13)
(169.9107395403721 -265.5742113062349 1.989553941036397e-13)
(175.3437170465695 -277.8727681324766 2.180806779333568e-13)
(171.3184896115019 -317.89804301592 2.223617803227984e-13)
(127.4694205598345 -436.23833106707 2.175676852496811e-13)
(93.07411374937459 -448.2434098606647 1.993127158016147e-13)
(47.21901986690568 -167.23338777541 1.747542466548566e-13)
(-12.2944900093247 -14.53895770848952 1.727703383077622e-13)
(85.31594689659254 -48.98568642105758 8.895405722686767e-14)
(132.9452734852146 -201.1207238179609 8.831557662142707e-14)
(138.4200677526036 -212.2784023035186 4.246448166690058e-14)
(139.6085559883425 -215.7267982275591 9.722660492084479e-14)
(146.4051077382494 -227.8841992736505 5.819207130755404e-14)
(149.3756905647254 -233.8349398191172 6.416834522621794e-14)
(168.6403317783929 -256.3943807272524 7.467359443088616e-14)
(209.6728801177111 -279.5888581794353 7.431572789039368e-14)
(247.7456144124919 -291.6738160376225 7.441733821254923e-14)
(277.4556098591418 -294.6546934251407 8.604757599335299e-14)
(291.9294487697505 -296.1777456877961 8.616794824330326e-14)
(299.7521248959547 -295.325664369608 9.392696031582294e-14)
(308.6288438678619 -296.2287471129918 9.484998148785325e-14)
(315.1618044324596 -295.4975293675666 1.01675151286747e-13)
(321.9254041990014 -295.9957246496223 1.030899130456736e-13)
(327.4453644592396 -295.4992379483842 1.096951517949833e-13)
(332.4312832641001 -295.5977430625722 1.112211504563571e-13)
(335.8967782444857 -295.7701598108782 1.169434004468182e-13)
(347.6303750247648 -293.7662968490924 1.17374065776962e-13)
(422.8502144783158 -278.088710793298 1.165542039243952e-13)
(327.9252888624274 -221.7594484975974 1.019799558716851e-13)
(153.9668684843053 -234.752073040239 1.142142829730658e-13)
(157.8508015308344 -245.5440400972434 1.518805065675809e-13)
(160.4270306449317 -255.6095746288804 1.38868676637393e-13)
(163.1304440825408 -264.4188386902304 1.506681719088588e-13)
(161.3182762090433 -257.4182681151468 1.457665648628066e-13)
(163.0232572856969 -256.892192463371 1.670536369353748e-13)
(161.7178523570841 -253.0752501754958 1.568007910831332e-13)
(164.135291596809 -255.6757079065959 1.743766555874097e-13)
(163.1171548277832 -253.4692464900609 1.671778693119072e-13)
(165.9781516048529 -257.2516161595387 1.855672665287575e-13)
(165.1933757679648 -254.8944247719079 1.80957005358155e-13)
(169.0027262413768 -260.694252541992 1.998704355369398e-13)
(169.1940661587355 -261.0816261682185 1.990894918565242e-13)
(173.6036033833659 -271.3135215084083 2.179802524888061e-13)
(176.1103660679719 -278.9554979056414 2.248816979379418e-13)
(173.6455384940956 -318.3307881656495 2.351711316109125e-13)
(134.8064622572771 -429.6644930085493 2.299891897744e-13)
(102.1509576079961 -456.6012720800284 2.134990854570395e-13)
(57.59359618110776 -198.1131600748411 1.83384786450765e-13)
(-9.707681018764283 -24.08005747626434 1.721554968962885e-13)
(96.85472898902043 -64.37026269641444 9.188302353317512e-14)
(130.8503889654549 -195.2936780194761 6.765486752080297e-14)
(135.4727706197397 -205.585790710795 5.232001022841563e-14)
(136.7235543786887 -209.6417520189772 1.030597752165745e-13)
(142.9024004893771 -220.8297092943995 5.001105726655681e-14)
(143.8039308100806 -223.8325376340079 9.133071070190491e-14)
(152.7664235875957 -239.146902243439 7.985812192483578e-14)
(166.9497513782068 -253.7895383872093 8.800586636805088e-14)
(211.9418005630202 -282.7643551952306 8.08197127349272e-14)
(246.6600982048659 -290.5369955536692 8.936345779637164e-14)
(279.3101936261843 -296.6384954809203 8.564248833485894e-14)
(291.4408285377001 -295.7756576478145 9.480748853634932e-14)
(300.9742156780113 -296.8704389072927 9.489686270984489e-14)
(308.386267520231 -296.1702507076484 1.022015175098042e-13)
(315.8818215785598 -296.8125140453198 1.031774906101748e-13)
(321.7685025087948 -296.18899232082 1.101317284162904e-13)
(327.682496383729 -296.5571910001228 1.113339954504169e-13)
(332.3193846917091 -296.0138576515478 1.172891866386481e-13)
(335.7797220873724 -296.5753157960769 1.181520568621761e-13)
(345.4050587639327 -294.9644213153124 1.210886861540378e-13)
(412.821951790298 -282.4228683152986 1.201571038933935e-13)
(334.0935709804719 -236.3644257869006 1.073906792873618e-13)
(154.8256839639299 -242.0717453735797 1.326181791996475e-13)
(156.4962968457902 -239.684841147202 1.564661876369798e-13)
(158.0950889546451 -245.7161519433981 1.389261060283417e-13)
(162.5600730047661 -259.1893489692486 1.599431132659643e-13)
(162.6167352251635 -263.5858741147652 1.528538489967177e-13)
(163.9719528569893 -261.6226472414429 1.668798532096759e-13)
(162.2032310171133 -255.592543022156 1.567791899252602e-13)
(164.674943358565 -257.6960974568315 1.743975965709993e-13)
(163.2323337368289 -254.0710422720297 1.665146398113782e-13)
(166.4031541951097 -258.9002762511719 1.855539067328791e-13)
(165.4935682593271 -255.9538594361599 1.80928548557749e-13)
(168.924843476986 -261.1277087627918 1.997971425555733e-13)
(168.8285926975642 -260.3120800844096 1.992653801296014e-13)
(172.6959838994529 -266.5316476774228 2.17802846447569e-13)
(174.3765906384611 -272.4004165303346 2.252132224389433e-13)
(178.7831853529899 -282.8435564177055 2.396767615982805e-13)
(175.8856682584081 -318.0488961636089 2.503046342747323e-13)