/*--------------------------------*- C++ -*----------------------------------*\
| =========                 |                                                 |
| \\      /  F ield         | OpenFOAM: The Open Source CFD Toolbox           |
|  \\    /   O peration     | Version:  v1912                                 |
|   \\  /    A nd           | Website:  www.openfoam.com                      |
|    \\/     M anipulation  |                                                 |
\*---------------------------------------------------------------------------*/
FoamFile
{
    version     2.0;
    format      ascii;
    class       volScalarField;
    location    "1000";
    object      alphat;
}
// * * * * * * * * * * * * * * * * * * * * * * * * * * * * * * * * * * * * * //

dimensions      [1 -1 -1 0 0 0 0];


internalField   nonuniform List<scalar> 
18230
(
2.628494184477449e-07
9.125916772344944e-08
3.467493287668037e-07
3.850030349717734e-06
2.188680898522916e-07
2.283474142288522e-06
7.739350435001253e-08
3.908723561826794e-06
9.530091628541255e-06
4.502610728311914e-07
2.172901218017164e-06
5.218690427451289e-06
2.072374520714679e-07
2.337149564459392e-06
9.958913772069804e-06
1.674535394151313e-05
4.405377894778221e-07
4.923062895760932e-06
5.492113901332483e-06
9.028317722681861e-06
5.166645715509559e-08
1.679080635836967e-06
5.565296276600375e-06
1.770974839847726e-05
2.613085974858835e-05
4.552303435379582e-07
4.987405295242864e-06
1.198771501738412e-05
9.55815143971914e-06
1.413221296919004e-05
7.937820916876113e-08
2.485713374544796e-06
3.872461625214585e-06
9.496457612517358e-06
2.722676782949436e-05
3.788576494214833e-05
2.746730108367698e-07
4.627088584359996e-06
1.188661718174009e-05
2.013237686704055e-05
1.491369548358933e-05
2.069596890659626e-05
1.026094525901081e-07
5.153438443454248e-06
5.249704593975309e-06
6.163652803849532e-06
1.392420841789965e-05
3.846270128736572e-05
5.197722699033976e-05
1.368849423652718e-07
4.727301088947424e-06
1.060081112206851e-05
1.947076405138546e-05
2.998430003213411e-05
2.143064293880236e-05
2.883540322603418e-05
1.135639905073132e-07
6.092892585767061e-06
1.134339698466764e-05
8.654874139393423e-06
8.800825439464043e-06
1.903234750685704e-05
5.113442531088017e-05
6.817877146934369e-05
7.178429190282627e-08
4.419727296584673e-06
9.725676262528518e-06
1.67693784066408e-05
2.830694734099035e-05
4.105308740841466e-05
2.939803679765771e-05
3.895488026448719e-05
1.250011636828834e-07
6.125521458086791e-06
1.317357077707455e-05
1.935939169717837e-05
1.309940945899408e-05
1.195937048695275e-05
2.452349522865989e-05
6.432144766686032e-05
8.60738184459085e-05
4.715636422538285e-08
3.583013423625467e-06
8.14450098252356e-06
1.45149218578196e-05
2.325747276918846e-05
3.744397282398511e-05
5.284715569336159e-05
3.916914833905014e-05
5.103046502972914e-05
1.223476605928828e-07
6.293098864568065e-06
1.361704834631834e-05
2.243162091907114e-05
2.977184829539034e-05
1.880325067389338e-05
1.55617729944534e-05
3.011396503164397e-05
7.642216104004192e-05
0.0001050274612401823
3.279944996257434e-08
2.896515208723503e-06
6.716835971950788e-06
1.127630481122061e-05
1.914258708556987e-05
2.962061819987659e-05
4.658118286291746e-05
6.478610120701031e-05
5.080914531779876e-05
6.503029113531287e-05
1.27454935066234e-07
6.290537278818493e-06
1.401507341754257e-05
2.325242247456077e-05
3.399598959585004e-05
4.327003876290548e-05
2.613623180885824e-05
1.975493887999746e-05
3.538688863274895e-05
8.267356631173835e-05
0.0001240518720111987
2.581964241191698e-08
2.502404315454764e-06
5.940759291009972e-06
8.258039085640755e-06
1.354346808053256e-05
2.334217964477008e-05
3.545156005418576e-05
5.489682122520797e-05
7.601928689417407e-05
6.42584623604183e-05
8.089736855941729e-05
1.411302056620967e-07
6.258754777411061e-06
1.408518173038134e-05
2.37271278341146e-05
3.509564296774312e-05
4.847477642681317e-05
5.983206204095835e-05
3.528793253394081e-05
2.474314076904954e-05
4.005105291037875e-05
9.155102136063302e-05
0.000141716647571189
2.242590724510328e-08
2.480488786253924e-06
5.6450736297266e-06
7.010111743772126e-06
9.836788044075552e-06
1.557993445143052e-05
2.512417131145342e-05
4.021054614582997e-05
6.183136829750248e-05
8.566888190263833e-05
7.876093742796685e-05
9.778314151954617e-05
1.433397709702149e-07
6.282157512796624e-06
1.406734452526376e-05
2.379804487898471e-05
3.562012051496657e-05
4.966338759650653e-05
6.61734043873817e-05
8.033262008476839e-05
4.669790015781533e-05
3.060148331300277e-05
4.400077963763987e-05
0.0001039905209672092
0.0001570514211748816
2.242378203673075e-08
2.625610627575057e-06
5.757127060321588e-06
7.027574519991336e-06
9.09738420888688e-06
1.168456616195734e-05
1.758141496499618e-05
2.730184075673244e-05
4.065158625044413e-05
6.527811128476074e-05
9.289917030565596e-05
9.226956759831627e-05
0.0001153035385978416
1.465381262119432e-07
6.252309784336813e-06
1.428167877139852e-05
2.381652824987043e-05
3.588677076638332e-05
5.041907353966142e-05
6.752833287596304e-05
8.749091442602813e-05
0.0001053843581825394
5.643708026889655e-05
3.798066714643595e-05
4.778226497530657e-05
0.0001123251575261651
0.0001692516457489541
2.576071503834352e-08
3.010958410507408e-06
6.037685346818279e-06
7.366872497178035e-06
1.093396167640374e-05
1.078851251477275e-05
1.351708136091667e-05
1.92270637236444e-05
2.886133243334188e-05
4.311878499156085e-05
6.373292211947807e-05
9.764445412839254e-05
9.522864894476411e-05
0.0001326626318685522
1.607145115377535e-07
6.293319347973993e-06
1.425621158153653e-05
2.419094952585904e-05
3.607903639551603e-05
5.087867222999598e-05
6.850007254108928e-05
8.940010301765092e-05
0.0001131390378623577
0.0001355029710451709
7.112028712735086e-05
4.733829047694146e-05
5.226789052044194e-05
0.0001160792408585966
0.0001785333986248244
4.017746689166464e-08
3.538152637229655e-06
6.794752545074483e-06
7.911007245448363e-06
1.267548265222678e-05
1.188606593239737e-05
1.351996580572611e-05
1.525309882542271e-05
2.042223532683463e-05
3.1292880070775e-05
4.43763123674577e-05
6.48563743812528e-05
9.978561118696735e-05
9.909494669237489e-05
0.0001479201046120449
1.60429341020201e-07
6.525495552969772e-06
1.412423374398769e-05
2.405780326149308e-05
3.653305797407365e-05
5.115046482945392e-05
6.90944644056527e-05
9.03593403494256e-05
0.0001154077004011113
0.0001440033341815463
0.0001717403441450758
8.616314941755429e-05
5.939412349195427e-05
5.83930358550181e-05
0.0001207807156394276
0.000185930145387576
5.705644630575837e-08
5.049138908187827e-06
8.248499776371615e-06
9.903420003722819e-06
1.356116384417178e-05
1.311528514492741e-05
1.652935540792249e-05
1.709712352018347e-05
1.738029222353312e-05
2.200054770138071e-05
3.181508163138604e-05
4.534019524029264e-05
6.571381234768231e-05
9.465565430071751e-05
0.0001008461833021711
0.0001375578219368361
1.655068634575291e-07
6.478138736368033e-06
1.441228061594208e-05
2.392680567403193e-05
3.652081922152669e-05
5.16724718985438e-05
6.94176815165323e-05
9.096820613528957e-05
0.0001165614613929635
0.0001466342862738772
0.0001808684949493415
0.0002150062823335028
0.0001063715394466922
7.444401283595643e-05
6.760316388079683e-05
0.0001286020782547331
0.000193564215882202
6.145206046829807e-08
6.057322247317632e-06
1.081449569030218e-05
1.326349154087634e-05
1.601415274281546e-05
1.440179484930162e-05
2.152662957922222e-05
2.158270216977603e-05
2.154858051763815e-05
2.124308706222234e-05
2.334750395604744e-05
3.246145874015583e-05
4.546533246782629e-05
6.564427411360719e-05
9.112888170284947e-05
9.919158281673036e-05
0.0001288997468156144
1.605677126940268e-07
6.193696636510108e-06
1.45129292650481e-05
2.432669861151965e-05
3.63123897912062e-05
5.183310737392723e-05
7.001770070570965e-05
9.140052823821401e-05
0.0001172463252426769
0.0001481406092505097
0.0001841342201913354
0.0002248365919356779
0.0002660266270877458
0.0001315049729217729
9.102048373582321e-05
8.113258230230493e-05
0.0001410078624203188
0.0002050175436648105
6.84897626466493e-08
5.943873200825176e-06
1.274705026827315e-05
1.821510073117985e-05
2.03893922908082e-05
1.855736805244224e-05
2.486603157720311e-05
2.286731071617497e-05
2.726956842907041e-05
3.062892214815819e-05
2.90127749019824e-05
2.672728795942338e-05
3.334614757668652e-05
4.57700121791142e-05
6.615553064471837e-05
9.116244542948982e-05
0.000108967558045143
0.0001344667626953116
1.335166188228628e-07
6.250708457402185e-06
1.419524870426707e-05
2.426718635030148e-05
3.67463349856132e-05
5.142986835331968e-05
7.026906435651513e-05
9.212442831091694e-05
0.000117962627978815
0.000149063656713119
0.0001858759650518438
0.00022889132896654
0.0002773681943730409
0.000326047047667044
0.0001639851019296372
0.0001119300537893465
0.0001004084786739329
0.0001596119762583559
0.000219128967237377
7.803525429336018e-08
6.102448332655581e-06
1.272187653983498e-05
2.109748601585563e-05
2.73835581124666e-05
2.716817751311544e-05
3.035758821384389e-05
2.365031617216569e-05
3.185312764820022e-05
3.553057311592132e-05
4.426546151280057e-05
4.178051197216225e-05
3.647671259571424e-05
3.655385788321407e-05
4.648190233093911e-05
6.613227846268699e-05
9.714295302623357e-05
0.0001199134928759444
0.0001395623305110405
1.268821712036186e-07
5.828879273522892e-06
1.401144899311504e-05
2.400272037139574e-05
3.683826140229256e-05
5.195095352530886e-05
7.007038976542871e-05
9.245243067839121e-05
0.0001188445301896351
0.0001497302372942456
0.0001872239085054032
0.0002308513547054975
0.000282283501036682
0.0003400334488243286
0.0003964263157918081
0.0002122991335408654
0.0001409116454090999
0.0001267872768836665
0.0001876203909573888
0.000234704390389197
9.060237532657254e-08
6.271078312005072e-06
1.306499163440573e-05
2.122437001939564e-05
3.120456846304666e-05
3.854122593167344e-05
3.969672709267332e-05
3.266573295406964e-05
3.991121756539293e-05
3.714568044350992e-05
4.874476143152544e-05
5.861456532861264e-05
6.412561057571508e-05
5.776722947393741e-05
5.116430568569545e-05
5.280239236165491e-05
6.703949312394967e-05
0.0001002264627781148
0.0001360472175426788
0.0001566206059326496
1.342437661098715e-07
5.724049113733411e-06
1.325451175247367e-05
2.36672800320726e-05
3.625328677338188e-05
5.22766162601077e-05
7.062184972746697e-05
9.23592527043749e-05
0.0001190790676577812
0.0001508392761538475
0.0001880120820539081
0.0002324596468361948
0.0002844504883986286
0.0003461650162251675
0.00041501961266795
0.0004790892097831679
0.0002748933545880019
0.0001802477332429778
0.000162832006909104
0.0002243348284169551
0.0002438094622159679
1.141628907178879e-07
6.491266081636637e-06
1.345813387351735e-05
2.188443747339615e-05
3.155792443350958e-05
4.34742246136103e-05
5.217406122022756e-05
4.937428012952403e-05
5.219725659960246e-05
4.190589533273751e-05
5.636699340619755e-05
5.840649137500558e-05
7.669475519065678e-05
8.417276017767545e-05
9.061677526876007e-05
8.770624533809423e-05
8.515407811191164e-05
8.226364391716919e-05
0.0001031657013403096
0.0001414552794878212
0.0001702196117067807
1.36368911930418e-07
5.763246235165918e-06
1.306685758860095e-05
2.259379209607812e-05
3.552264499831972e-05
5.120811844103051e-05
7.072491454236302e-05
9.291927242344095e-05
0.0001190563723210907
0.0001511430627988975
0.0001892908065693344
0.0002337650747115336
0.0002864736786204907
0.0003445556088632751
0.0004222239024631257
0.0005037717234542328
0.0005767687732868892
0.0003543754054084921
0.0002305442324690495
0.0002116536828384663
0.0002714463342479917
0.000241023171489827
9.050542849591194e-08
9.131519954582048e-06
1.401762638763551e-05
2.25255199435246e-05
3.254206674398256e-05
4.41345570936349e-05
5.832700653984211e-05
6.844155895613508e-05
6.818313228398389e-05
5.494532259799989e-05
6.943102823641275e-05
6.794221578097221e-05
8.092705055807324e-05
9.269956309632089e-05
9.938355894454524e-05
0.0001091786767817033
0.0001231141833641155
0.0001354215389385964
0.0001296319106063432
0.0001096716158287343
0.0001515270471853193
0.0001776596758555076
1.329797263048919e-07
5.597096582328978e-06
1.327349640644613e-05
2.22930382698646e-05
3.426378444757944e-05
4.994906022369763e-05
6.941996343324702e-05
9.310744261653267e-05
0.0001196732408700818
0.0001511723342561079
0.0001897921507454971
0.0002352545738083676
0.0002882498675978081
0.0003487531843526276
0.0004265485734058874
0.0005123151494849524
0.0006085980623558021
0.0006925641830652958
0.0004541685305305397
0.0002917902562490897
0.0002741050739547656
0.0003295431947930042
0.000251854138140012
1.174200345381891e-07
6.751445579291028e-06
1.696637631075116e-05
2.33570928835726e-05
3.3389883975354e-05
4.545177509646829e-05
5.925855749772578e-05
7.593081150571058e-05
8.747567598427142e-05
8.636408491895979e-05
8.49713798977254e-05
8.594478745505611e-05
9.632918876226433e-05
0.0001058552074715236
0.0001250784094569778
0.000115677201898104
0.0001194133229963074
0.0001349687624938181
0.0001604615554648701
0.0001815568983644925
0.0001305214250475764
0.0001716352987234932
0.0001896471491556886
1.094789130127649e-07
5.430399653324953e-06
1.280499061852389e-05
2.268949376499772e-05
3.391833907059389e-05
4.867354216983966e-05
6.761067822103894e-05
9.154930670826451e-05
0.0001199531579600061
0.0001518050720373984
0.0001899021612179661
0.0002356758595531832
0.0002899895698301885
0.0003532710439535333
0.0004245763948551732
0.0005179719251369202
0.0006188906777896298
0.0007322596013850216
0.0008284484513362419
0.0005777637675553173
0.0003635428164657198
0.0003453772418631652
0.0003985484380528921
0.0002635991416270918
9.796933733097352e-08
9.298824765723573e-06
1.427377380046809e-05
2.647870131599468e-05
3.465593632360463e-05
4.665650861496749e-05
6.081227386918126e-05
7.725784386317297e-05
9.636637374323626e-05
0.0001101922361580484
0.0001078330130095277
0.0001053469961046201
0.0001058224677685663
0.0001172842031723899
0.0001347598056257225
0.0001549843385068117
0.0001490355578132361
0.0001412599745214552
0.0001500539041655218
0.0001752942228179219
0.0002137770687777225
0.0001722569502326576
0.00018749944702256
0.0002076850524308371
1.010844088442171e-07
5.180764462357719e-06
1.236506386322614e-05
2.190446643537219e-05
3.467888507999371e-05
4.852152852404422e-05
6.640149670230856e-05
8.899356360708024e-05
0.0001180024887033092
0.0001521703801506295
0.0001904204063886555
0.0002358906033022328
0.0002903576679440239
0.0003553002996432188
0.0004267301271354913
0.0005219952680605986
0.0006261797421587255
0.0007446049609097558
0.0008759608446831575
0.0009854123240199896
0.0007256022958927062
0.0004452619344145507
0.0004008028750756091
0.0004817976529810189
0.0002784347284272698
9.872011974269084e-08
6.338377874809672e-06
1.715660050533131e-05
2.352079207330246e-05
3.800437240696311e-05
4.838993906522962e-05
6.256795338974425e-05
7.914825323782776e-05
9.838156867507466e-05
0.000120601792281654
0.0001365781951309812
0.0001332804574542308
0.0001292589780607663
0.0001294008059313512
0.0001421607557271596
0.0001620099190014196
0.0001863824495674013
0.0001866533434841666
0.0001682587874729369
0.0001694650439486702
0.0001902449268714495
0.0002255118915073583
0.0002178181694999563
0.0001903314279656826
0.0002294701015314091
9.979068364482847e-08
5.192434762370491e-06
1.184669113437457e-05
2.116784167496472e-05
3.355003686680255e-05
4.963126102444542e-05
6.655983085175342e-05
8.795482533230194e-05
0.0001147288966706185
0.0001496720710437745
0.0001906294927888855
0.0002364614243066473
0.0002905093098715749
0.0003558856893949733
0.0004326345576355551
0.0005240774384290107
0.000630819017085145
0.0007537318142548776
0.0008911993152485481
0.001040481382570039
0.001163479037308903
0.0008912282038926359
0.0005399068796148496
0.0004720811526743978
0.0005797197756293003
0.000302863766321998
1.047498282600199e-07
6.36763464935823e-06
1.375015444245339e-05
2.673174785889833e-05
3.502512931664124e-05
5.186467177718029e-05
6.473099507291484e-05
8.131950583630135e-05
0.0001009079389589877
0.0001231531113262872
0.0001489180515452679
0.0001673988524503585
0.0001628487479505801
0.0001572959440650728
0.0001569406596473259
0.0001717449127624879
0.0001937583883914629
0.0002215697354462355
0.000227660128586164
0.0001962648452501897
0.0001891006644544063
0.0002073525741432397
0.0002322143233781635
0.0002502430254083009
0.0001947410735826019
0.0002639668959057393
1.115987857546202e-07
5.18995078205568e-06
1.211048964084005e-05
2.042813260038207e-05
3.236721165229516e-05
4.804252686774121e-05
6.802677059906514e-05
8.85160552561538e-05
0.0001138936577495838
0.0001456320112948804
0.0001875812864732634
0.0002365152073190029
0.0002912098543974888
0.0003561645353360443
0.0004338195240745743
0.0005257935967591007
0.0006334907131963962
0.0007592148274528259
0.0009027508768171022
0.001059871526588391
0.001226114699087169
0.001359583335239158
0.001074055137701694
0.0006451068030415762
0.0005666912741673912
0.0006888801535208575
0.0003239869652975107
1.129627714888868e-07
6.428104727189542e-06
1.375444115688735e-05
2.294555098261319e-05
3.83603307888045e-05
4.88921718037454e-05
6.811566955382369e-05
8.392005348765526e-05
0.0001034856442856138
0.0001262387053215105
0.000152179283967102
0.0001818311516014516
0.00020299096447195
0.0001971680588339089
0.0001899280289399748
0.0001888457300789334
0.0002056972169955207
0.0002305548275490486
0.0002614636147325146
0.000283842289074493
0.0002321228598396358
0.0002046886827245863
0.0002138949533047579
0.0002288675359294301
0.0002595487952005082
0.0002130652566834614
0.0003106899986398862
1.346320734248763e-07
5.107406936780287e-06
1.244621880770613e-05
2.098057521212071e-05
3.136015003743823e-05
4.65428720645543e-05
6.589916588203879e-05
9.059094350681864e-05
0.0001151773575436118
0.0001454602592164448
0.0001829514706580545
0.00023288157130585
0.0002914847766650709
0.0003565682605189027
0.0004342340495771865
0.0005264534053633814
0.0006354743506283369
0.0007628694071328914
0.0009095787712844545
0.001074598762136731
0.001250723435714156
0.001429564467777711
0.001567676904423591
0.001234434898296696
0.0007689655348121492
0.0006850907093258126
0.0008127843599408601
0.0003497055033184432
1.163599131504274e-07
6.550362444582796e-06
1.387854565137217e-05
2.308838914237676e-05
3.427982110385681e-05
5.219140943269032e-05
6.539171687875158e-05
8.726992329380183e-05
0.0001064643028159475
0.0001295536479937841
0.0001558354382348894
0.0001859922843382419
0.0002200350550754532
0.0002441234814744243
0.0002366849354339618
0.0002274010277141764
0.0002253245939792368
0.0002441936712974187
0.0002720755035620534
0.0003064779419775526
0.0003501528911715724
0.0002694227763937351
0.0002195079800674091
0.0002135603958908328
0.0002193835096618007
0.0002566344343562152
0.0002380607612878293
0.0003737413695273735
1.444981053768461e-07
4.647691888795354e-06
1.256533507971802e-05
2.164587245230389e-05
3.276658728302599e-05
4.56141883384692e-05
6.39270904790003e-05
8.787754589987123e-05
0.0001183983089030653
0.0001480312939457105
0.0001840587094021692
0.0002280496688958648
0.000287424568938657
0.0003568773683086323
0.0004344877943542295
0.0005270212643310647
0.0006364997958424844
0.0007653875028032976
0.0009143641175972739
0.001083468331569466
0.001269158896939805
0.001460682217243183
0.001643206318008465
0.001776961986192616
0.001391448794496385
0.0009242998293293354
0.0008240334007674906
0.0009450708268790375
0.0003830628196637486
1.194263026326626e-07
6.54174233496482e-06
1.401285705846212e-05
2.324876506908988e-05
3.455709702225925e-05
4.824543029134639e-05
6.862107268322987e-05
8.497878493744965e-05
0.0001099060259614222
0.0001329885470035538
0.0001597630236351282
0.0001904684533851095
0.0002250614551411861
0.0002640376756972501
0.0002914065380580689
0.0002818740015765524
0.000270158535614096
0.0002668417698068586
0.000287615058191675
0.0003185993764628879
0.0003567116840933968
0.000403732511862706
0.0003202533879251402
0.0002466162996017491
0.0002145139669147954
0.0002070961190123308
0.0002395576531824566
0.0002594426170455575
0.0004524838938513723
1.410753683956911e-07
4.259528466748346e-06
1.149650385419208e-05
2.202905458320861e-05
3.411361812329959e-05
4.816585687225026e-05
6.326170641530932e-05
8.555140008570755e-05
0.0001150028042733067
0.0001524343373258435
0.0001885551517450114
0.0002309188372172662
0.0002824260268015295
0.000352561511571668
0.0004349337391646101
0.0005273671839537379
0.000637317926885954
0.0007668788680291289
0.0009177961498702273
0.001089854638792314
0.00128091500030823
0.001483643493068293
0.001681465388967056
0.00185365889523281
0.001967439033323071
0.001518373695946748
0.001101001276516811
0.0009687854885747922
0.001101730788470493
0.0004220651181248387
1.221745486408592e-07
6.531138061667647e-06
1.386885346564304e-05
2.335708503139965e-05
3.487305353666683e-05
4.846612547302933e-05
6.471717332629393e-05
8.803041375622689e-05
0.0001081496406567368
0.0001362852223959601
0.0001636745888837523
0.0001949289270550897
0.0002303513828854307
0.000270017539539057
0.0003145004791200199
0.0003452808374553145
0.0003331301905756863
0.0003187062589554647
0.0003137187365994381
0.0003363307879361626
0.0003704524311679253
0.0004120302081653091
0.0004621103393550094
0.0004242896032322083
0.0002984114511349714
0.0002257598506335284
0.0001907126781344754
0.0002075284834065459
0.0002607265366238494
0.0005045105538915152
1.424384173597131e-07
4.160214038707479e-06
1.053037903233571e-05
2.023868114233089e-05
3.493549194683618e-05
5.052253129414751e-05
6.739193854634439e-05
8.52221145025004e-05
0.0001123373105437177
0.0001480703174556324
0.0001941862014270305
0.0002376887988714118
0.0002875799214994527
0.0003480149788925276
0.0004305347452939849
0.0005283208061861119
0.0006377777219427991
0.0007678626672392901
0.0009199994592433026
0.001094485891589419
0.001289643966976985
0.001498954032723723
0.001710208137947956
0.001899623629977024
0.002040800305199625
0.002115695331616201
0.00161155402314017
0.001308165574561526
0.001191028751819868
0.001085129046622603
0.0004842808084275461
0.0004949319120974765
1.247745565940009e-07
6.509265352262526e-06
1.396844381136413e-05
2.321242224192228e-05
3.503194582408988e-05
4.864743675835719e-05
6.494380172819507e-05
8.426810814034385e-05
0.0001109443748351952
0.0001351159373709316
0.0001668104657594747
0.0001991406073858335
0.0002354659629451924
0.0002755916825090313
0.0003213170243302392
0.0003722239614744058
0.0004061562648381194
0.00039110581695639
0.0003732245545941261
0.0003663538659751234
0.000390611002758938
0.0004279093489814882
0.0004722892331014227
0.0005250094887141349
0.0005853215996350383
0.00040065969213008
0.0002569777914389932
0.0001798854943385338
0.0001813778063128187
0.0003090934517555227
0.0004560897659215026
1.352477773054597e-07
4.790577378365395e-06
1.050711320345615e-05
1.872468956382079e-05
3.231549604642618e-05
5.178898020959107e-05
7.133276084657993e-05
9.137802520223576e-05
0.0001130739355256185
0.000145140656652711
0.0001886541544719155
0.000245155586818631
0.0002976073939115879
0.0003565412238549367
0.0004271524102432876
0.0005243450964436858
0.0006395201495237576
0.0007688012152622689
0.0009214887601213657
0.001098005847391543
0.001296316726747529
0.001510745056396703
0.001730039163621738
0.001934646299821866
0.002093122456600204
0.002179050046517222
0.002199181263691645
0.001653362382093499
0.001479566867097465
0.001714527713076531
0.001232839061183683
0.0004986993855539885
0.0005409574487323997
1.214361879832128e-07
6.4902474544278e-06
1.403614957233243e-05
2.339464444165408e-05
3.492255317262927e-05
4.899300794112869e-05
6.511438182134714e-05
8.459778988800616e-05
0.0001073973159945517
0.0001374920271643731
0.0001661620115203001
0.0002021977699423151
0.0002398220665965366
0.0002812135456019997
0.0003279873389585715
0.0003717027487531764
0.0004374165983425805
0.0004748115969939395
0.0004560510440117673
0.0004342856418745835
0.000424950625229016
0.0004507012734741869
0.0004909378917529184
0.0005377271868583931
0.0005914321104597014
0.0006488216886810433
0.0005966942867605685
0.0003458553384260203
0.0001861613390270926
0.0001222131988208687
0.0001469205796712408
0.000886006722650004
1.286231385696508e-07
5.329059701502181e-06
1.184806740703106e-05
1.880604973276218e-05
2.962120397922209e-05
4.785045007907172e-05
7.329135761957077e-05
9.748206087263831e-05
0.0001217523916949933
0.0001476870574838159
0.0001855322697863006
0.0002386590494511786
0.0003072711488868597
0.000370700364758947
0.0004403261332713159
0.0005226361394674252
0.0006366821525711816
0.0007715344023546422
0.0009234902476036351
0.001100588516728497
0.001301656921359097
0.001520240320516221
0.001745925813258224
0.00196014636413645
0.002135120900315912
0.002232897975885393
0.002241247957417588
0.002055437018338731
0.001491770498331843
0.001904339802826678
0.001351919216669578
0.001967804479082942
0.001547522483411834
0.0007424068453721498
0.0006228682508012323
0.0005308513080888033
0.0005585887840664884
1.218683874549309e-07
6.470034143720573e-06
1.400565662584594e-05
2.352145371331645e-05
3.510188196425495e-05
4.896191325096234e-05
6.562123922563724e-05
8.475670771273898e-05
0.0001078628461849543
0.0001342670350969351
0.0001683508453875028
0.0002021370271469196
0.0002428030262300662
0.0002855912914137216
0.0003341759219383226
0.000371734745749551
0.0004422600267553711
0.0005082617540351838
0.0005514766772025024
0.0005282770686645965
0.0005019014545818638
0.0004897594469859205
0.0005165649110804844
0.000559098242428086
0.0006068957881746291
0.0006589248689831323
0.0007102630694803857
0.0007514967583905845
0.0004805069461389524
0.0003187991261203336
9.18127378405092e-05
0.0001012950252154457
0.0003060938129439782
1.149900662474507e-07
5.696507561455473e-06
1.241576444742135e-05
2.04956933684992e-05
2.917920773722398e-05
4.375325933009121e-05
6.743585877689499e-05
0.0001005099242806946
0.0001306172245700791
0.0001600552617434837
0.0001904092345546298
0.0002355744938813777
0.0002995841744926012
0.0003828537956324788
0.0004594909521613613
0.0005415903119730029
0.0006377477519317272
0.0007706948074920871
0.000928152759040006
0.001104057082361669
0.001305921670639601
0.001528093024294751
0.001758886653026275
0.001980910299447392
0.002167199927339766
0.002280262155462735
0.00229363656937865
0.002206755917211652
0.001628187686965363
0.001286907919876237
0.001962354253571498
0.001186070943802447
0.002159358467549041
0.002177042603225314
0.002076132168419773
0.000691691545060281
0.0006108527740702353
0.0007608004384659854
0.0005977135344115846
1.386585279789035e-07
6.405539958524834e-06
1.396156773440313e-05
2.333132900588324e-05
3.50737144984684e-05
4.914160924336845e-05
6.549667484464255e-05
8.536274473756127e-05
0.0001080894503388342
0.0001350258754275016
0.0001656693576376887
0.000204104127787343
0.0002434257936149565
0.0002864225949981814
0.000335984789909459
0.0003743318511417593
0.0004418939813304329
0.000500505980798559
0.0005935024512427543
0.0006364765207653993
0.0006078525129220011
0.0005761365176811641
0.0005606483620346864
0.0005876479630489
0.0006309506291594859
0.0006772388705513755
0.0007230942621585665
0.0007625564242530967
0.0007690663584999655
0.0006779575674384752
0.0001532101541171833
0.0003598551473908835
6.646644934788515e-05
0.0001271476590438485
0.0008168659926486859
1.013027258925223e-07
5.734423388092194e-06
1.276419189503908e-05
2.08995071075934e-05
3.11098624878369e-05
4.264519953586001e-05
6.145553084250037e-05
9.252249437691386e-05
0.0001351928882248769
0.0001723941172529673
0.000207615044966849
0.000243369374879644
0.0002969530063057763
0.0003735693333268139
0.0004743996561202683
0.0005669208233183371
0.0006639192683466987
0.0007759533176294974
0.0009301191313014833
0.001111439202671179
0.001311478166485761
0.001534778116143501
0.001770148092306688
0.001998192053169807
0.002193714400150124
0.002318992205262311
0.002344144912056565
0.002159631580950246
0.001871931924856522
0.00175328143306525
0.001171989609729644
0.001557563941055391
0.001294536342164383
0.001702930327274432
0.002010874785004144
0.001660467308829797
0.00194232886322176
0.0006724964462613045
0.001002218154573299
0.0005983344060613219
0.0008525115057271853
0.0005368274638330272
1.674994275674045e-07
6.56569088470966e-06
1.398376763792025e-05
2.309578060051772e-05
3.491346905922298e-05
4.909685705648683e-05
6.569806266696281e-05
8.51097361861474e-05
0.0001087659575042291
0.0001353568501771398
0.0001666878239659124
0.0002022293461509045
0.0002452839125153342
0.0002885695228229965
0.0003371238916545872
0.0003763984244297418
0.0004443424858784963
0.0005071435610658453
0.0005825497965518148
0.0006727703496781921
0.0007298077027797805
0.0006945608396958379
0.0006564819958729755
0.0006368880129552537
0.000662328443772959
0.0007034268695928753
0.0007441760228688524
0.0007783925434288623
0.0006920760534128116
0.0005041760805290366
0.0006367850862789129
0.0004557356904043917
0.0005868393184001952
8.030761752630581e-05
5.31201393339208e-05
0.0002357064169747568
9.274662973898551e-08
5.678073572793487e-06
1.264331467258837e-05
2.137726455166197e-05
3.123001257163819e-05
4.430989065703455e-05
5.932355841426338e-05
8.382355507461312e-05
0.0001241928318361824
0.0001783186996446043
0.0002241590663273866
0.0002663250775401338
0.000308554726930396
0.0003713350771299598
0.0004635269596900587
0.0005849251173943734
0.0006959090694624496
0.0008103626220697292
0.0009402380431365438
0.001117145408598359
0.001322216250229123
0.001543235791275632
0.001780138312412555
0.00201345696125122
0.002216076848316027
0.002351522688971535
0.002387449049746104
0.002109680013207146
0.001886918183138286
0.001844421277289273
0.001805548517085317
0.001793918533949548
0.001211634736932224
0.001575788436173905
0.002192505559718643
0.002546309732486556
0.00212087628111099
0.002211719023319673
0.002412556328270834
0.0007548608098259992
0.0009748220112496229
0.0006283219213643639
0.0005551649419673634
0.000839600948024449
1.340669925942451e-07
9.3380327434163e-06
1.437584221544818e-05
2.31957111740748e-05
3.45378834918733e-05
4.898124258441479e-05
6.56906954658453e-05
8.52916899867692e-05
0.000108438499613442
0.0001360839951050618
0.0001671672861740649
0.0002034651686269864