/*--------------------------------*- C++ -*----------------------------------*\
| =========                 |                                                 |
| \\      /  F ield         | OpenFOAM: The Open Source CFD Toolbox           |
|  \\    /   O peration     | Version:  v1912                                 |
|   \\  /    A nd           | Website:  www.openfoam.com                      |
|    \\/     M anipulation  |                                                 |
\*---------------------------------------------------------------------------*/
FoamFile
{
    version     2.0;
    format      ascii;
    class       volScalarField;
    location    "1000";
    object      k;
}
// * * * * * * * * * * * * * * * * * * * * * * * * * * * * * * * * * * * * * //

dimensions      [0 2 -2 0 0 0 0];


internalField   nonuniform List<scalar> 
18230
(
26.78996499791203
13.22326880438379
29.13637000168663
80.99882236592524
12.92721457180898
45.8535504367785
12.34123065534079
85.56879258438877
111.1047358025473
53.64077446468755
44.2321256077132
60.32580271687728
13.6405030347187
40.08661101474073
119.5367640041105
133.2471231546073
59.99399048258644
168.6386383920353
67.37619870876638
73.60229083056855
42.77914318662204
55.92843914764604
58.11913066181335
144.6243487353196
152.9267540789937
62.83821902751541
197.2583601054966
250.1427277574641
87.10073745564401
86.44562621616792
81.51781057818779
196.4457071809303
89.01746300939625
73.09753887908371
166.9249000227037
171.221745116878
75.75890412768914
212.4035245343603
298.3538036158733
315.6184517486748
109.191483711488
99.38594038164284
87.53029988465414
300.1505979977695
236.1503880083338
122.2455908460455
87.30475772538385
187.5647648312026
188.4937640679442
83.13730984271115
269.774514244773
328.3722251454469
380.46970812331
384.1916349396203
133.3262496823366
111.9155698487373
83.4469326012062
294.1942034787654
372.3462996975337
288.2611737876291
157.4857602425563
101.874011535231
207.5132265761415
204.7996937286011
79.16030366389552
331.8645584412175
402.0531079109483
423.1753023134492
469.4753451163608
455.8414091023903
160.9901535758792
124.9258204912572
82.80676824388117
278.3720732576485
379.7257027128917
442.9828065896487
343.736112787735
195.2842231641245
117.2183913809103
226.2842578497744
220.3319833873316
71.24809387359002
361.8072300155832
452.1840221048072
514.8560084474983
527.5538712664847
565.3881056802596
538.2218145613045
193.8067404858932
138.4907215860503
79.15354611418725
269.525022738613
371.9773215252908
458.4340784389884
503.7798797316534
402.6587263772114
234.9472574698723
133.349154355157
243.9742728704078
234.901638485863
55.91119637420815
359.0214547951656
424.3091640135706
566.7127190481157
633.7327402004377
639.0009729364581
675.5756466244761
629.0325877588432
233.6896064340084
153.294750977928
76.40777836696782
266.4113112093447
363.1844788329709
453.431179604264
527.0522028926382
566.0513617306121
463.9941575518262
278.5654818569322
150.5416908037284
260.3558887544792
247.9236625036317
45.62864368878458
286.2427225528892
349.5011108094798
509.1943328923051
675.7211516719894
755.9253127582954
766.4986878998346
803.1263118368701
738.7693617905368
283.3357167118473
170.0531547492874
76.4026455489639
259.0483865758549
358.0747241069502
443.3464051282714
525.1352846056571
595.1274810355264
622.0117788168063
523.1706948199073
325.1056882128166
169.1470426144612
274.7721122921317
259.8143932970548
38.59239884338032
228.0946503495057
261.7421175840616
393.8042431250267
581.5773070966726
776.7671346880015
886.7856713139868
904.2597241067934
955.0152690683707
866.8688292527457
346.257544999864
189.5748232598024
75.07461500660966
252.575244052096
349.9631464970064
436.6537535817171
514.7349772619241
594.8160081676335
658.8310991310925
677.0638505644372
584.2075230967334
372.5435788525706
189.9983368082054
286.2762409179651
270.3188185952305
35.0144053078127
178.9428406942828
212.2160958193751
290.756328324102
419.4986493881573
628.1876151072082
857.5989368541873
1018.435814180627
1060.341641335936
1129.278903545316
1028.875820297586
425.3989116113571
213.0522557876121
72.41680529240583
248.158741936981
344.2302627888
427.640431787809
507.5286171239702
584.8475033904266
661.187593510091
721.742633519492
729.5398598751675
648.0028188866144
428.0426204324806
212.8474401122967
295.5819227077228
280.8046543742469
33.95156647419043
147.4454366002623
177.4632428726139
239.5356625636886
305.5062788525103
432.4214764528079
641.7842332112034
901.4667365056166
1137.202072148541
1216.18709975157
1334.34182850969
1219.950724043086
534.1210883306412
242.7572087305051
72.02530174877467
242.3527579688368
338.3394699909049
421.3453014981545
498.6752162525073
577.5378263385362
651.9084301911747
727.0898998396913
781.5827133820728
780.4407591370635
710.7397831171537
487.4792879779345
241.4367124467801
305.4531718238092
292.9525902941327
34.61177423038904
138.9978705174765
155.7239104439549
206.7549203604155
252.2766691516885
322.4821599895525
423.2088205253787
616.2240220598492
900.7807827007765
1213.319767144343
1369.892963791603
1541.654820225009
1438.086333987602
694.2821179606608
283.3038968583772
69.19097279106545
237.7437892693038
329.8825859578365
413.4764877541105
491.7558885719652
567.9929652987717
644.4220866546347
718.0512723519067
789.6080748109334
840.8523161710212
829.0105205059009
773.7819928914546
557.1421031360078
280.2878502119534
322.8836011817401
309.2773569370472
38.31590185121235
118.0403162882831
151.4988013939312
182.2738928284425
221.1482523454534
273.1497016825849
325.9420374858615
400.0024522124633
555.3813917155201
833.9358397199974
1181.211922789616
1458.507245835423
1709.996471991133
1648.070420377049
915.6491981848707
345.9862545582303
66.04860561376542
231.0485435762199
323.6688870830494
403.7600190167283
483.2426713637917
560.128625457342
634.5380356470439
710.180189708172
781.4651326046819
850.844298658555
897.4653888531599
876.9332490597658
836.1840885275818
634.8315537276528
331.2304200205251
351.8455852331986
332.954644151634
37.5250608451208
124.7526062616675
149.1269226681106
177.7154600279203
197.6325466856341
243.513958662914
282.4378645594119
324.8572863059759
374.6812793521956
469.132849541622
700.5392150221491
1047.566120944894
1390.969584911843
1730.273512996414
1810.894164709351
1166.341522752629
457.7065798672193
64.32327460823714
217.3993424375844
315.664314931965
396.2009849647364
472.4054953895331
551.1984077346553
626.4038953383108
700.1465331323415
773.9535776966733
844.1169935623525
909.5639399429733
952.4090047556232
923.0289800266373
896.3054409662495
718.4491578144386
398.6018209664455
394.4910917985467
367.7003954899721
37.61632717569289
131.9974289137842
162.6840020969521
180.8904322474948
195.7195307879293
219.2991120991235
254.1688490067046
292.0989426114953
320.197848164419
347.3058463767613
396.4132430142797
540.0383686579843
815.9582681641511
1149.766342218812
1523.498405421754
1767.232596966373
1420.912196309367
618.4503803796184
56.75820740786376
207.694577133952
300.0417246127016
385.2576137518729
463.3201565321539
538.8432382701585
616.6567622234079
691.5192888541065
764.4488646321679
837.1457200343434
904.3780016708242
966.4116805421489
1004.713936434632
968.5069146159699
953.4800230388186
806.4577438648665
483.2793277298059
452.1100668639961
417.2315339249947
37.60110973078927
132.3638645352402
168.9839119297393
197.6887636595754
206.6940286893133
219.114028363177
232.259672418594
268.9543087055515
294.5609913116635
312.6154584386366
324.752048323465
348.858225206823
414.2639325739055
568.9755853336727
789.9379040723732
1098.795560035986
1525.365789304631
1486.205739060545
804.5652562072705
53.08370793208599
192.8299662136695
285.0414301573388
368.2300231576871
451.364616944331
528.753662889862
604.1462041415315
681.0890056491538
755.8964432462665
827.6625406044757
898.4465330181788
962.880650885576
1020.299647652513
1054.44844921786
1012.886591754781
1006.881600338542
892.7674446243799
579.6336965739249
527.654600113683
488.3254884309777
38.12727333309083
129.9809888458948
169.7034220283859
205.2902124513454
227.3118613116003
233.9561567113466
236.7029310555073
248.8699261385748
273.8746645035015
294.2552247503608
303.1534359919133
308.522787113959
319.8390122910845
347.1963475161322
404.7684235647827
494.0624125142214
651.8939475738289
1106.521830623062
1420.812671116659
978.6864038409021
51.26160537720946
179.7125215363253
263.4619190270574
349.6727567502884
431.7630508952145
515.9906508325087
593.1073364087016
668.4155738578975
744.5897277462832
818.9080474797723
889.5992156526556
957.7605943761084
1018.981441107597
1071.646827680029
1100.847393604302
1056.839559238921
1056.791515445446
977.516229306934
696.4919419040474
616.4380945258204
585.747151355847
46.24415015863221
126.3204845159567
168.4699357996554
206.4138652178289
235.4443342819559
257.4591088346707
258.1406095123642
257.1683392646777
258.898848862007
278.9837780125875
288.4041733685136
295.4576042587645
296.2910364628636
302.3786515283953
315.385957242661
336.7469239383603
361.8021679570032
402.970499624297
730.8451154105252
1224.386470671985
1098.298237820253
47.91430214749398
166.8765967657878
245.6538953254397
323.533262182748
408.9115217187797
493.1158093017379
578.3646864652086
656.3362058022553
731.625755387924
807.4229800728453
880.9774037746326
949.8313483236187
1014.994352180578
1073.41750055138
1118.780165784701
1144.595850986709
1100.668349952442
1105.823309425358
1060.376037942885
821.322896143486
713.0169943214426
692.9291758466858
35.78891024755617
130.186981848637
166.2857737656992
205.0604674952353
236.9112846813362
266.7234223704258
284.9359547706237
283.5907145126765
273.3731049536061
272.5740800578308
278.3639723792701
284.8401721146766
287.4214804550948
287.5565164349451
291.7976331815051
300.3532056868417
311.6382462057145
322.9373655473047
339.5374595927975
475.0610039782709
979.8701616914092
1082.53725023758
45.30058662886125
154.7265830059114
230.4573229092146
301.215931141328
378.7908222296758
466.4919069508023
553.7110068183599
640.5527954702948
718.8331867770341
794.3348981503384
869.6858243639873
941.3941269569749
1008.002796563612
1070.622469841482
1123.981483186544
1163.168624945937
1185.613968339183
1144.642837649903
1153.786166828446
1136.979988451528
944.2986252859702
809.656174867313
784.4499160944014
44.6709025329699
124.1971373156106
169.2398308755549
202.2138745126946
235.7416522716208
268.2798851766656
294.7223719894817
312.8217227055935
306.1506660250979
291.2781324488541
280.6859184664403
280.1390887908067
281.0093625146328
281.5882888603658
280.8195944253027
284.7546255221631
292.748171406899
301.9768155649227
310.1725252034583
321.2610802103909
366.8296683173748
767.4911012451929
1025.101591175288
42.26390883253148
148.7442424662574
214.1299839698169
283.0303268055137
352.2914760214879
432.9176775426899
523.4203871587968
614.387401286937
702.5515389079729
781.0136852806467
856.6006085219389
930.0742407238037
999.9824082654608
1064.157785097011
1123.422877622206
1170.871035479898
1204.977284186613
1225.310077902549
1188.705998536102
1200.644741580847
1205.22517927097
1067.715381223975
899.9398507019138
846.3906181544194
34.00542347014059
126.6127893080778
161.3897148814837
203.0878598239865
233.3372229408379
267.0304311314886
296.3738269681505
323.4814374381729
337.9279713699094
329.6638187392055
306.3280863033199
290.6620683280171
281.5069726285565
279.1231384312002
277.8998557091883
276.8556123382401
279.8577696725306
287.6179559182529
296.9816436188186
305.0478094496109
313.0874208987381
334.7430114185652
601.823408022492
937.5272519160492
41.26292557131198
139.2557945689248
205.4199044062574
263.0730582556132
332.0564737557893
403.0298905380123
486.2472473968483
579.9248329024086
674.432758184705
764.1551876491186
842.8830339261863
917.3385753598801
989.0109549458906
1056.489788981839
1118.171129457523
1172.428278731951
1215.112940513246
1245.509628824096
1264.013431476864
1233.248782118546
1247.704170238137
1273.197280878055
1188.455469274842
984.0054021982753
873.8211265698238
33.21154112225132
116.4139023300377
163.8015103712225
195.2938093418883
233.8361521200686
264.4180864605347
295.5273588914656
325.1605117245768
349.3288389955475
363.1595957520207
350.5873195193533
322.8059050291215
298.8278106445287
285.2082547194039
278.9915565825828
276.2530726891807
275.0190839653259
277.4050819290819
283.7758904127401
292.6260760115178
300.4751142673456
307.4233747534194
320.2040157009936
479.1026388921381
828.0898137444933
39.07343652268264
135.1064374098096
190.9853847234981
252.5048447159112
309.2657670418959
379.9914291328204
452.8711404122554
539.8492278640318
636.4483577466855
734.3043799261533
825.3606182996507
903.6142868339292
976.6370899299919
1046.071921519088
1111.1278684956
1168.701533950366
1218.276111721074
1257.595927459281
1285.324792337473
1302.678548312615
1278.633751256317
1295.994995306297
1343.104323965198
1304.747786945603
1060.794150810457
876.2480892161119
32.56456437457977
115.8609888860929
152.5091048956077
196.4439020537619
225.1484481042029
263.9997685659712
293.1839635161363
324.1749121705921
351.4169936195235
375.2274559788153
385.9282435355868
371.4175855458313
336.5845466549342
307.9756624290939
288.6065862816459
280.7339112381999
276.0830125414226
274.3006138347967
275.9603390640315
280.667032193776
287.6289895906652
294.1095866037036
300.7000611020553
309.0166125064911
393.5236830718456
724.7564794081374
35.95665694834705
127.6727621766548
187.0570948537172
234.7895384475168
296.706670583484
354.3331743913338
427.1920331937566
502.4187493968445
592.6534794273207
692.5544340815187
793.9959050682835
885.7864828767301
963.2244542865625
1034.492628648537
1101.456448671257
1162.547151418527
1216.357315394575
1262.227888531625
1299.201583217793
1325.188781045699
1342.193707755012
1325.074931005937
1346.155290338335
1412.570412570066
1414.204292201898
1125.961700273407
853.0361644952856
32.28106849605024
112.4559241647024
150.5061843863532
185.6055012186466
226.0705538288941
255.2970518781057
292.1275219358694
321.5471561127782
350.5495213102434
377.4819708305654
398.4947783513047
407.9703398266743
389.7164695000103
350.7966615603099
315.6032653449346
292.5204641149198
282.5282459389179
276.8913502247659
273.8650237763819
274.0809424603457
276.9204822104113
281.5433021500609
285.3409719574518
290.3586307740253
296.3072069312429
345.4698981636342
633.9950204819104
31.41460448692447
117.2296779840324
178.7944985444173
230.1126471302902
275.4812973721478
340.4321110281828
399.1133994260262
474.6899904203745
551.9825206743527
646.0207308594102
748.8994838572575
853.0966072054892
945.5469333881234
1021.402416807045
1090.667938919154
1154.147691505971
1211.830951333392
1262.059353532148
1305.358500596315
1340.482740990841
1365.888370511537
1383.269641421132
1373.07358387828
1399.590876713459
1481.425712304253
1515.935915030716
1176.615105131501
821.9941513510524
31.56448035094058
110.023298008364
146.7252990261689
183.1589015824039
214.6131946131886
254.9796253059
282.9272384210136
319.7167513433674
348.1180660407197
376.7516477720692
400.9678029925014
421.141049565637
427.3151615833744
406.9109767493823
362.3969249190446
323.1998048653146
295.9961107727154
284.4702891163064
277.4421340801031
273.3827398849043
271.649761328573
271.8846558508728
273.2368115548141
273.2741304937022
275.4571503170845
280.5649193056304
314.4938980213995
558.1032145967226
30.25249166629302
99.71330624194196
166.6272808431889
219.8420815756469
271.1799526601015
317.0050735075848
383.6510894674522
444.241390272228
522.9405022036567
602.612356756541
699.9363054922643
805.1684324524258
912.0124136144909
1003.926006535822
1078.100836095934
1144.62333622379
1205.123264333914
1259.210212606617
1306.876483691888
1347.996293231794
1382.334597808922
1408.118993370386
1426.193286687114
1423.082133375873
1456.045734446857
1549.142549332087
1614.388905031051
1212.171364063252
762.469979933369
30.8398328057151
107.5145993101809
144.1201411659662
178.6033330995327
211.4360423637607
243.8389113714863
282.2304132635046
310.7849595777642
345.8733717998679
374.178071942503
400.5177578015203
423.8029471836291
440.8187176118131
445.2042200790559
421.3161716993883
373.3307872002669
329.2156243955898
299.2387929705994
285.9096984029362
277.5183910991964
272.0664473536735
267.701948584453
264.6466952973057
261.7064224136666
257.5465835960827
255.8984293365636
261.1510360306091
288.1670581098659
501.1852924340055
35.26414259507415
93.359512161672
142.4146432981673
205.3563386653867
259.7733222495797
313.0978039744948
358.1668219481624
427.7171969268621
490.7030834217144
572.34887133863
654.4264107214311
754.3186570493081
861.5854346694842
969.8286941899403
1061.028559141249
1133.082258452249
1196.910891509801
1254.123359982234
1305.671697298496
1351.08718093587
1391.146951001563
1425.476271665475
1452.390198307511
1471.217074213774
1474.658710087938
1514.51112520704
1614.886269991477
1702.100270343748
1248.753453208473
800.0669095515998
30.125906166866
105.0140928420724
140.773728908652
175.152093218446
206.4865469089551
239.8169291108657
270.7105078866742
309.0112297870174
336.8098195796309
371.1740768389434
398.1614389868988
423.397921005681
443.7964085994907
459.0131823423858
459.8689851591885
433.5543200670008
381.4841141242047
334.2839363691878
301.4060290858764
286.5419809202634
276.4234879035611
268.9353303776553
261.6989637784778
254.7125448366957
247.1926551077427
238.2132018977159
232.4461844694651
237.2734114827157
262.4748158242137
411.7858877091725
53.54139486931811
111.5029034748195
133.7133769442186
176.1532221015978
243.210526075465
300.2454702851676
354.4967651836333
400.438576581793
472.9512812217398
538.0213250617423
623.1386216889639
707.0332169405316
808.6603539044612
917.5212108950999
1026.803495038762
1116.706196762452
1186.466825548726
1247.323096032293
1302.203906797672
1351.457146767046
1395.786766393506
1435.519702498648
1470.687699891412
1498.991345317276
1518.120882565755
1526.025497727867
1571.701822907387
1677.46567241862
1793.655560033387
1147.278678637787
782.3176287429458
591.8342080062082
29.42114522651959
102.5174684316388
137.8360738683125
171.3210090697251
202.7546288859266
233.9181542758678
265.8246616864148
297.2794730275243
334.3772384669963
362.3458287360097
394.5666380270318
420.8597118394595
443.699799422474
462.1508204728502
474.015825900762
472.2185196194945
442.2390042289688
387.5799158819058
337.1623471370669
302.2775545717933
285.5927222316884
273.663093049732
263.4067580452646
253.2159878451269
242.2102543918773
229.7233035327974
216.0667920333323
205.4262476242881
210.4441575897037
225.746343145395
279.8925349739602
73.9374954698268
176.8300521005534
162.4147620540695
166.5281968591923
209.717699296889
281.5357519681984
340.9844525128838
397.0739736072699
444.7782331245646
519.5859172680355
587.237718754428
675.3761535091677
760.8303512752723
863.8627390596989
973.6887271519662
1082.922021731462
1171.122280307491
1238.239862399831
1296.946849679064
1349.647746497731
1397.797355303977
1441.726420976458
1482.117640596966
1518.370166013151
1547.775075287714
1564.377393546952
1571.092324590166
1623.520754408512
1732.760564340635
1798.004091183184
1714.292502505451
810.3354007063577
498.9588002533749
28.45183675078162
100.0716010384668
134.9383075999394
167.8222781739046
198.4726812219211
229.8743184480561
259.4906036296884
291.9021045317938
322.3547099879322
358.7261564254866
385.7175970991184
416.6816835319594
441.2351774885069
462.215702050345
477.53117502526
486.6477585811321
480.6258451212496
447.645780187238
390.2577212547463
337.831163484376
301.0662375784142
282.4732860149435
268.433695678607
255.2400433557441
241.8472663534365
226.6956786579294
209.6814623168421
191.1349306473473
175.8709615949197
174.0555429407446
188.119076606149
231.9128653949477
82.93703645384494
252.1838944113927
257.9074239029748
204.0833289625847
198.1478980430585
243.2658218210202
320.360318678561
383.0890627621964
441.8220607271971
491.477857859192
568.0267220247182
638.7209947548142
729.7608666422263
816.4387533156349
919.8486105989269
1029.869154371197
1138.578407696131
1224.238679748781
1289.44334162532
1346.045454444816
1397.701458475656
1445.415607536207
1489.968437868228
1531.393887247287
1568.763130390352
1595.92600364304
1601.850959781093
1597.365533732597
1620.539182584204
1702.267037697895
1905.638557376979
1781.782489878689
1553.063510742705
967.1886307774806
863.3480615491129
289.6528089204077
572.0123098176474
27.57449521956574
98.50389810026185
131.8309068019434
164.3287601917909
194.4218401111521
225.2787951717062
255.1911227792481
284.989941022657
316.378600819724
346.5806897172461
381.3469525215447
408.0508126958372
436.631717070768
459.6735758919313
477.8924443535157
490.6105591566563
495.1630443926845
485.5172374094153
448.6471326846638
389.4667496316898
335.3348410033731
297.262989017536
276.5053873538838
260.0766751187868
243.8515970486132
226.9690096449741
208.1763776554373
186.5804915879456
163.0603135503033
128.2509950467897
124.9364342637729
136.0660975420295
164.4765456609183
82.26156116357711
283.124540972016
356.0141978231591
322.7540436617405
243.2182301076637
230.5808607717942
277.4239436874129
360.7625132808733
427.3357188296926
489.5059173426303
540.4539668395164
619.1833793993347
692.642036704674
786.3195117187576
874.1083665247622
977.1280588042658
1086.657990094458
1193.685339487151
1277.246842914469
1340.320640248186
1395.902137847177
1447.115216660964
1495.456645653028
1541.037349357569
1583.707731519629
1619.323502009221
1635.533814606848
1605.51619666148
1487.972893709093
1486.155801547498
1666.337562645683
1547.861423320916
1870.935207358773
1699.191654798555
1956.314109408989
891.7976897310148
836.915060014008
238.9759187584898
395.2313963378832
28.35489645186603
95.83547129768472
129.1277631363888
160.2483471776995
190.169024920737
220.5444533916335
249.9994724531914
280.2659878381965
309.2640382319309
340.3077494575869
369.2229027179864
402.660374244669
428.1595628033821
454.8237255486583
475.5057659747444
491.2728981569866
499.3155644732636
499.7356417568037
485.4009429773442
445.1471418399407
384.2904552168174
329.3107757944393
290.2360429576185
267.243066139229
248.2467948047719
229.035487110697
208.6633123812031
185.8237991307136
159.2534632082906
117.6312661264674
112.1516880780368
101.5455087681298
94.88014454895114
126.3903751395039
144.3597890944519
77.87019647702675
282.2699520048799
389.7484605162672
441.8992184046588
386.1521645100937
284.2778124354384
263.5736140574818
313.856580569965
404.1811797073223
474.8804462826089
539.9934736788921
592.9157990644048
673.0422714623489
749.2599370051205
845.8637875315311
934.3693061456206
1036.388671091092
1144.631214606751
1249.68238130944
1330.386553598212
1392.243231895669
1447.292559715866
1499.157158498178
1548.508853594721
1595.408262739253
1636.655761256192
1662.790906705051
1636.972236436493
1430.408522837287
1229.785815226842
1180.461932624804
1322.336214914197
1331.492223380601
2016.162685887276
1809.693253915098
1405.134178778506
1765.714484937049
915.1684608559294
1070.938278802797
531.8083787605954
172.3398897265729
266.7017894364369
35.04718289191933
92.85426972390079
126.0519834134437
156.4837760681707
185.6520270624522
215.7084069535993
244.7828382677953
274.5317847066556
304.1700182639599
332.8095019246663
362.5306976087047
390.6914914024621
421.9958044151981
446.62466609695
470.5161170527217
488.8290019672107
500.1441603055447
503.5756062760184
499.131869905237
480.273515720519
436.2870038861723
374.5329377126002
319.1830315097436
279.5429892297469
254.3797720480811
232.645516550318
210.4524101271875
186.2692394029936
158.0387042805046
110.8118010722284
97.00485268030168
79.42479905982532
79.69368651634385
75.44905253986821
87.99560259864012
105.3374460622466
74.06674255224485
268.6913947613609
381.6576796536813
480.0979638831532
522.365082891934
449.202142442351
327.4000216742207
298.9715195548492
353.1830681492011
450.4727636988313
525.4552536052101
593.8761153383585
648.9355529886988
729.8537044611578
809.5514160648255
908.8218670144167
997.9359818224597
1098.335336077267
1204.588725323961
1306.814524179026
1385.065252794501
1446.029628681734
1501.604932530153
1554.399850336711
1605.122238459126
1650.769015012963
1684.013811740839
1668.615989286515
1438.972633267371
1084.416847465428
1083.274534837767
1015.98887773931
1084.983399568092
1158.584149989771
1200.582634372018
1896.358829009456
1724.80183059956
1122.02970407523
2056.210652472646
1003.901891279626
988.7568151659583
363.129222974541
153.4626891711167
201.722523733656
26.02134308560207
96.77090655006316
123.849698395966
152.9562670216107
181.1383842245253
210.7617840492876
239.5834855033652
268.7808537809593
297.9452968638103
327.3340190313721
354.986077496081
383.7729718396109
410.255595285855
439.6134617321416
462.5743595541591
483.5879018082119
497.5359550183102
504.3558380474112
502.6879579131066
493.126896700129
469.4273152419793
421.9953758631772
359.7326662478781
304.7120879103642
264.8921822593022
237.6675951541776
213.1552079898395
187.3343356840104
157.7713489954073
108.7772788758339
91.55938700213575
80.37410939961883
72.6982439903263
72.98337350877613
73.49609084406674
68.54125896722567
81.59943333060151
64.05980754288832
96.54189536972761
74.65187242516836
254.7361727178611
359.3501449602423
467.7981134430237
563.2813486629359
603.885496250981
517.7115021214966
372.8927830322327
337.2646421662133
395.2554011672388
500.1497673115307
579.961138191287
651.6497737780541
708.9099444243222
790.6430385168426
874.1991207738768
975.9732205793591
1065.48789134549
1163.814921976073
1267.341084083965
1366.548289317614
1442.106047210733
1503.082115966807
1559.382081385962
1613.459870431676
1663.038544248969
1701.553293653739
1696.713871404371
1467.455791813313
1090.976394541971
907.5374647008675
831.230903691893
821.172685430887
829.8450726233385
852.7028736202417
788.4159755469442
1861.06563325963
1309.406488988695
774.3881493385541
2138.501487534902
1516.858269770116
1001.791901305413
573.2659914090675
216.6358852114174
117.8790815778384
26.06533595785442
88.40879356994212
126.3257599507724
150.4599096991631
176.9089934825543
205.6763827548279
234.0857390145548
263.0913396028072
291.7326873561407
320.81564929054
349.123920603181
375.9348120263463
403.0876691170795
428.1314190604548
455.0737487905016
475.851683936322
492.2107580405881
501.5608422396755
503.1978485657457
496.4610692911646
481.5256087884214
452.9143156955695
402.0936936376634
339.945323685862
285.8774380625552
246.1497808771092
216.9340272759663
188.9668652309004
157.9512302583999
103.0740058177755
96.46629768430392
91.51292973076005
75.94186877581292
72.70906130755765
64.91032097536203
65.31909032081946
67.6144818482325
61.78833451908507
64.05795668935114
54.61940323960602
76.78467688896302
72.88045184076846
243.3954590475388
338.9408038270655
439.6183366528449
545.7142590563504
645.9025913367811
687.084121560103
587.7177318048153
423.5713568882989
378.802169747599
441.4808171640574
554.3230228063908
638.9814064668163
713.971219792664
773.7989347792828
856.348466778624
943.760771639675
1047.900356186245
1138.206060985151
1234.041801157734
1334.280724088723
1429.825837968866
1503.006053429832
1563.979710847666
1621.223500869121
1674.08329483692
1717.193165946061
1720.761909205383
1502.490651126245
1060.718421908316
933.5744745009913
953.1664266897991
739.2408554294144
685.4722697290795
708.9606148966311
664.2354233059737
699.4725570604991
622.2337225310893
1363.9454117252
1072.668045066033
587.0492911746757
1934.27675827283
1467.88519598559
1019.79133791031
417.8056683718481
167.0863215893576
101.3913300549181
25.17191992562489
86.38749448910855
116.9735517515795
151.35722472397
174.4505276383886
200.8399345832246
228.6524691270258
257.1637596629239
285.5454685577063
314.2120145235932
342.2362634482969
369.860714170452
395.3445736033599
420.8345391209629
443.8293842173788
467.9344337946246
484.8775135053154
496.2504093393742
500.3631177860324
496.7262115454776
484.5677286054964
464.1768256377532
430.5483738679693
376.7173292158143
315.3781468874915
262.7679234806347
223.1988223622818
191.2786415933887
158.3704373264444
103.6784192576534
86.92188964220084
78.21158922990429
78.44225342918995
70.54777552624837
67.54662444278561
62.21131050241098
62.20447928589271
64.03647253016463
57.6365900095337
49.23173764932159
62.22353314986968
50.44562306652605
78.02929760087474
70.47837567152079
235.8645993787466
325.0495330690836
413.2576860453635
511.1155149420304
623.3433761545292
727.4849846915655
771.9353106977507
664.3592384058412
478.7777972161693
425.0954016038903
492.402846361494
613.5216894885639
703.3772393102936
781.7298579124996
844.4186765626514
927.4608961111531
1019.07805861038
1125.987564754995
1216.876353118579
1310.12411470946
1406.435364981701
1498.048809156985
1568.291397791235
1629.258560581419
1684.838780105776
1731.557684810897
1742.33955853101
1537.778637906733
1100.898051259581
957.8831486786663
741.2815177096468
774.34700170126
602.0499293568996
544.7567720649947
574.6945209042605
527.6293075714433
520.2530650148103
458.5341357493137
1341.292285405414
694.9292439338006
384.859264436637
539.6179711147065
2109.324419833397
1913.994802800675
1158.859285357606
678.3925297343549
224.7478393689745
152.0705620224231
109.5160297870417
24.45425210644898
84.34374182869927
114.8511397403876
142.0850981291587
174.7204220461991
197.7651631764141
223.5111150633352
251.3135920960763
279.2235462313988
307.5464468209453
335.3275484948804
362.6919018158638
389.0233061378823
413.0240340964782
436.4183010461043
457.5017351309679
476.9737015686626
489.3122232772703
495.3702677924141
493.9936829486405
484.7415332933221
466.9803524658613
441.0028910633606
402.3433521670602
346.2738841280081
286.4716107126605
235.2857103107068
195.1704209674339
159.0997227468606
97.49904986015351
84.14818949090831
74.95142737982836
70.25987585223797
66.30079352840183
63.18228923503026
56.62131082502421
57.52145606070517
60.75507716016293
53.37159900892109
35.77383897904756