/*--------------------------------*- C++ -*----------------------------------*\
| =========                 |                                                 |
| \\      /  F ield         | OpenFOAM: The Open Source CFD Toolbox           |
|  \\    /   O peration     | Version:  v1912                                 |
|   \\  /    A nd           | Website:  www.openfoam.com                      |
|    \\/     M anipulation  |                                                 |
\*---------------------------------------------------------------------------*/
FoamFile
{
    version     2.0;
    format      ascii;
    class       volScalarField;
    location    "1000";
    object      Ma;
}
// * * * * * * * * * * * * * * * * * * * * * * * * * * * * * * * * * * * * * //

dimensions      [0 0 0 0 0 0 0];


internalField   nonuniform List<scalar> 
18230
(
0.05918472965023222
0.07711530303482282
0.03387066882259315
0.06938229580547489
0.005466079551828278
0.100673452172156
0.09226503139611342
0.03434749164337465
0.07150970877124049
0.02758474780723199
0.03057341260403669
0.1001688280498729
0.00870096763966579
0.09254180198353143
0.03326682668846317
0.07552463447150072
0.0200391952025415
0.01988442198121182
0.02035546933513077
0.1060658641095268
0.3418403817838672
0.01645883231192446
0.0915632949122145
0.03226523516429432
0.07734716591691934
0.05970146743164376
0.018041781916128
0.03371957937836718
0.02960719277867836
0.1075219576262203
0.5080194682610762
0.4260369296347172
0.02591743774240792
0.08853115827623186
0.02988128124591572
0.08085098476950302
0.1465848921510808
0.0655029421893091
0.03641440315204965
0.03336740823096171
0.02491770847578196
0.1113791563286887
0.470405992304604
0.5773474092669663
0.4320984105261093
0.04208733331562869
0.08435606357969981
0.02798855074753196
0.08278909676724697
0.2985176210398139
0.1706668860498651
0.09292035541591921
0.040532420037595
0.04447015325637405
0.0295686144309204
0.1125579691434142
0.4271264433099677
0.5217045711770628
0.5858281078897903
0.4529790468698797
0.0601913383604404
0.07959655331203205
0.02510349875643543
0.0859040623335675
0.5074856555033026
0.3553067005301956
0.2042130175747637
0.1019212683557078
0.05747362890831011
0.0476875861021262
0.027707445054734
0.1145895456918232
0.394111031488034
0.4671620679077054
0.5293844425712901
0.6102123658940488
0.4702922161677831
0.07945608791587526
0.07309108510034645
0.02248937821498985
0.08794394507755854
0.6829273003782771
0.6003571183484131
0.3916209002211694
0.2260367803412102
0.1278310466337416
0.06713106246107645
0.06090040998107982
0.02963219016963342
0.1148403814758803
0.3638796336785121
0.4289897841690078
0.4779113160858751
0.5511407501993564
0.6203921320470593
0.4879099487527775
0.1016924372538524
0.06567377758426769
0.01979595036931481
0.09062294104593918
0.7898256310921556
0.8132176828008106
0.6379068867196166
0.4308759282815058
0.2613121309835791
0.1463439549598479
0.0887453470018212
0.06957009365393281
0.02891757801609371
0.1152157014533275
0.3412358394729283
0.4000744803981484
0.4396533086755453
0.4967722796089198
0.5603998006519771
0.6390504870230774
0.5064858696087106
0.1239927134381634
0.05569088926397244
0.01915362473160653
0.09325817783386478
0.8530971764992693
0.9295832565194815
0.8411794917986549
0.6861403027134735
0.4794462726486154
0.2957158722660455
0.1802377921834133
0.1081687821861575
0.08747793257074894
0.02918174216443958
0.1145998015246881
0.3247520641735017
0.3760335396886208
0.4103553607933566
0.4568996465102532
0.5071163445137902
0.5781702710741462
0.6511501238426949
0.5242774225466582
0.1525329725022959
0.04469954089083479
0.02188850459661972
0.09601250181407091
0.8831837585113254
0.9854779965014387
0.9385756334941258
0.8928050565646947
0.7435755474108733
0.5357751872397675
0.3461936480036554
0.2141842505975932
0.1411255123143937
0.1051937133294833
0.0298174529200741
0.1134003895135637
0.3085126096150927
0.3559059950975585
0.3872616376731749
0.4273553585708559
0.4674513143878679
0.523367237736123
0.5890207299110416
0.6676553064809613
0.5407912866738959
0.1769299939689535
0.03084404024271733
0.02847360223672641
0.09891771256147502
0.8546258160903949
0.9935553623351389
0.9761749942313416
0.988309935210173
0.9389186522771543
0.809746710170501
0.6061578977692
0.4046819918095514
0.2664038506825763
0.1794638076236799
0.1335557758225444
0.03410722427998588
0.111176126353485
0.2932983811800581
0.3391026718288148
0.3686539003851199
0.403190659639504
0.4380546655085942
0.4830685524002539
0.5353755818447563
0.6052159719291393
0.6797775327161306
0.5615746221601834
0.2078309896049314
0.01838907029635686
0.03887443758117035
0.1006310832372873
0.7769170659273472
0.9399691528007562
0.9767901016292139
1.027823782645633
1.011356891586991
0.9915275813629612
0.880591392612887
0.6834296680404941
0.4842179438008314
0.3327608543088958
0.2379563273009663
0.1711622300888455
0.04439197739777424
0.1069425344789708
0.2801288427456169
0.3235482647818295
0.351743478667125
0.3830287340371067
0.4146386276567635
0.4531592167533656
0.4952447712837669
0.5514980147572214
0.6177152278705158
0.6956480243005231
0.5813534290448817
0.2380275266485021
0.02112824328243356
0.05016299806236288
0.1025178570444934
0.6290159187069149
0.8494244449544125
0.9250524460013604
1.027446476338029
1.031604935422096
1.051002344994019
1.043023488237692
0.955556137471356
0.7772526221420877
0.579070401701172
0.4202337889563557
0.3186797871333596
0.2254582700526718
0.06592959032451677
0.1006412869319789
0.26182663231321
0.3079685099615497
0.3352574287140344
0.3655856121546671
0.395191515269139
0.4286441210083911
0.4656266568799101
0.5109422843141629
0.5648922317426589
0.6333599696655202
0.7081809661002136
0.6031153834791468
0.2708905859204767
0.04118580709911188
0.06157016460629611
0.1036375556071586
0.5228277202004371
0.6698622400471088
0.837078895079406
0.9674343619443541
1.022089151662849
1.07236168239573
1.08260630402291
1.088550558391877
1.030465507163035
0.8788049207180987
0.6924436970963117
0.5349241051695742
0.4264036707621839
0.3020599234130399
0.1045022082999419
0.09084955900877353
0.244248653116381
0.2885919282838135
0.3193932595147728
0.349522025435706
0.3778495962817133
0.4080758165768403
0.441539348327144
0.4804897986825648
0.5246489750802243
0.5812562782666558
0.6469308626063572
0.7228720195257327
0.6257385097220931
0.3082260762210727
0.06407070742090876
0.0734389494952145
0.1032592816381102
0.4520315284833551
0.5535429272292804
0.6662989582584852
0.8699138624021089
0.9593907602304806
1.064403538243583
1.08465710163639
1.114163897864671
1.130831389929511
1.100095298724747
0.9827066800795765
0.8225470961570186
0.674667097007595
0.5656917502737224
0.4149212441834193
0.1733822685702319
0.07667361251506447
0.2455978289321828
0.2691077268178237
0.3002937549115652
0.3331569901073907
0.3609380977441725
0.3904001751999885
0.42143576469078
0.4555935936168247
0.4946016431740682
0.5409063128541853
0.596044989708723
0.6626361330758481
0.7354973324301896
0.6489538597716219
0.3476376652788959
0.08998176746707305
0.0837858253188255
0.1007979427237592
0.4146144162274823
0.4898725545817837
0.5550972871402305
0.6865448046494791
0.864170042103103
0.9953357480880188
1.064869478337754
1.116278853247805
1.139683313521681
1.167263480300127
1.150061007484094
1.078137170307532
0.9515131997794893
0.8326606632208453
0.7319490813527857
0.5616833136022624
0.2801507442747683
0.0689375435763335
0.2504129269799619
0.2696776604101372
0.2817563788012781
0.3128020906343539
0.3440350179650489
0.3736201733498379
0.4036755867891267
0.4346937785977253
0.4701117195656109
0.5102735791040915
0.5561999405527353
0.6130178166405452
0.6768252716887526
0.7490647444070785
0.6733249358785711
0.3916205557480247
0.1227017400982786
0.09290409450731531
0.09646297189161326
0.3870641568342188
0.4516043572957878
0.4901560585988014
0.5718532810066806
0.6866007734522069
0.8898944691520532
0.9912922912468731
1.099430234293874
1.13227910791594
1.168339184329173
1.191770197472544
1.189035297997716
1.14424029496873
1.063170104066603
0.9789395217934034
0.8988713059966464
0.7254145650686201
0.4112847189365749
0.1000393333766384
0.2491509613258144
0.2776806844788733
0.2815575110417979
0.29355038125123
0.3241962470283153
0.3565525377051811
0.3864924263182541
0.416590810482162
0.4495047407817642
0.4850205059638542
0.5260069260728731
0.5732012727969128
0.6288979349819286
0.6928249239764729
0.7610080712649396
0.6974322205088258
0.4369436539293615
0.1632845614895767
0.1007082168762388
0.08207095435040963
0.3683121455395116
0.4211014542366595
0.4528172226248698
0.5090937860671952
0.5751041072077202
0.7024266910517261
0.8879611969833791
1.021098941917122
1.107650609233515
1.160162744879638
1.186954748996993
1.214768144751931
1.21363716959334
1.185686438078
1.134872747829768
1.08510967229113
1.034958756416479
0.8798928475099038
0.5608077382841725
0.1812513829824731
0.2312083631210649
0.2746481900688688
0.2871701609205397
0.2936903767662951
0.3049996311849484
0.3358966660545307
0.368875543775114
0.3994028665758474
0.4311368991596656
0.4638489358846729
0.5011263220529558
0.5425507948523257
0.5896333264286503
0.6467073112488475
0.7076616490765897
0.773673782658432
0.7188530472588759
0.4811341431941639
0.2070033712235022
0.1083714311199407
0.06027780827143484
0.359329447439359
0.3971229037542177
0.4241029919398613
0.4712889900063022
0.5121337605430932
0.589418644851326
0.7054503878418148
0.90884086400381
1.02125369344235
1.133972527083948
1.175106147308135
1.209255920128965
1.231883338001241
1.234009510777481
1.21007599262799
1.172573521401255
1.140256295598273
1.10872246222179
1.006943455406281
0.7049073688067391
0.2890225802286995
0.2188362462195864
0.250592066526858
0.2838437684294637
0.3001198513757816
0.3043328712233453
0.3159957044034392
0.3480874623407441
0.3816556953613673
0.4135665030209181
0.4452361313011766
0.480075983269886
0.5171792800936127
0.5595328509678601
0.6078166626781611
0.663731852771882
0.7234651693758317
0.7850459810907959
0.7385456506714146
0.5227064812223785
0.2505575281141045
0.1141575686955599
0.03548095059971842
0.327454070203155
0.3770224131030627
0.4023319014681883
0.4410063296949775
0.4749855134388204
0.5277770931608287
0.5947773730830987
0.7192948885899981
0.9107952097223034
1.044418497051789
1.144583102139848
1.194753437344172
1.226089683326137
1.2505152627284
1.251938329246286
1.229278983982785
1.194790605085751
1.168060723027654
1.147337605912322
1.083464425377309
0.8293256029604593
0.4064833202800847
0.2186712604309856
0.2367063040077046
0.2606214504160399
0.2956745141540573
0.3091615324552407
0.3154756894291388
0.3283702405293219
0.3604329055909505
0.3953130987884181
0.4275489394779315
0.4613730790812435
0.4957360261512365
0.5346529630238162
0.5771538881049552
0.6260641626641856
0.6813959712377552
0.7388003863757504
0.7967267154424655
0.7560983358111494
0.5609301618868946
0.2910530843590244
0.1189669668915129
0.05357962178980176
0.3230406459917547
0.3579341015522821
0.3832916372727396
0.4164817421063401
0.4456724328461663
0.490091142631313
0.5333209303864543
0.6084390628468452
0.7248867224299691
0.9274577001367479
1.050534784868719
1.160556383869972
1.208173015433071
1.242766593298477
1.265723966464879
1.271543897598378
1.250666601355661
1.217197159855846
1.191412196352571
1.173157648677028
1.131694094767178
0.935953598616701
0.524926211586363
0.2448289975385893
0.2374963210290117
0.2462071636525522
0.2698686893613415
0.3042040993274163
0.3206040021904621
0.3271572642920243
0.3402616160205523
0.3739164949239122
0.409193885984628
0.4433105263667693
0.476721753679974
0.5133105592018861
0.5516884171543505
0.5960919937332558
0.6443199736754216
0.698971592041284
0.7546243837878388
0.807946021518741
0.7718377935887206
0.5951859937163222
0.3277768375736657
0.126655006378219
0.1070882447017397
0.2936074230606033
0.3404172632087655
0.3610794845982718
0.3946419202643444
0.4226100876982239
0.4598248114297525
0.4961003248023772
0.5478463553602604
0.6156421109751424
0.7377640507109541
0.9321205914741773
1.06603394771358
1.171302503770255
1.221975664961115
1.256038734733741
1.279983221758362
1.289053043775324
1.272071510624512
1.240977440016302
1.215210487079476
1.194243101341016
1.160860600783567
1.016939799941044
0.6388403449118544
0.2568794561112782
0.2659379630504387
0.2459656093113657
0.2549853469900814
0.2786119856372233
0.314675160270121
0.330816321434138
0.3390140103991202
0.3537735521393973
0.3875651563050728
0.4244694311755422
0.4586090247763607
0.4941279639950166
0.5301351046481074
0.5707499322674705
0.6146651397275766
0.6629940152597981
0.7167322682407703
0.7703819237344833
0.8193791583387444
0.7858252223335289
0.6242329449307742
0.3624262480350262
0.137258289967908
0.1766958158847514
0.2782274010101026
0.3221516901752859
0.3463760113977958
0.3758290277680639
0.4014685546552677
0.4349111348857329
0.4665655479158094
0.5102742605484104
0.555590395407682
0.6291984257869158
0.7455990788022379
0.947010346776
1.074290543628664
1.185000398823483
1.234141121672754
1.269590343019996
1.292796523518893
1.304994577630671
1.291996042555378
1.264757354239495
1.241113834507335
1.217046456990805
1.183324034477484
1.075144826474661
0.7403512021577164
0.2417507870340906
0.2748045050981585
0.2718994788285117
0.2553141694325848
0.2631790778501309
0.2869390310466131
0.3240947639499036
0.3424630760672305
0.351850708635111
0.36692266571127
0.4024628233942924
0.4397608389377769
0.4756210550671019
0.5109172886312741
0.5490493731714465
0.5893584089863094
0.6338261989922089
0.6816786370959889
0.7346340611184815
0.7863241967315467
0.8309956964217844
0.798578161116192
0.6492156970289726
0.3943816311742045
0.148004043359913
0.25510563706438
0.2674514799155092
0.3081717684793048
0.3276587468983516
0.3575815922016002
0.3809612050065718
0.412532687877425
0.442700387599159
0.4799398701550931
0.5185307180970818
0.5697791213645417
0.6383525720804567
0.7582515098702005
0.9539668048510738
1.08797388563922
1.196210053173798
1.247272100613916
1.282223694885701
1.306409222793023
1.320502227546851
1.311884145821304
1.288596599241313
1.266424644080876
1.241019139401836
1.203410586298286
1.114812409586837
0.8271067272040336
0.1961046171057167
0.2555353639985152
0.2796790418402667
0.2815568839081174
0.2624879725630968
0.2710991834150169
0.2960445375007073
0.3344446288950616
0.3537944874803781
0.364778507257053
0.3817720376036324
0.4175700231328575
0.4564237294999827
0.4924904594129388
0.52959052521131
0.5674895106160992
0.6088166112914233
0.6529635097194114
0.7008409722071661
0.75263559312588
0.8025691216717814
0.843451128002225
0.8106117100726264
0.6689534874400037
0.4248910037553968
0.1581603525493949
0.3364066240511571
0.2558699340096473
0.2958184353540313
0.3129161115577731
0.3412115112789806
0.3644212340829307
0.3935778118125944
0.4206256889408301
0.4546733907653638
0.4886304048190861
0.5324830343847532
0.5796317629132183
0.6521875067198002
0.7680433553141607
0.9673438542579376
1.097527265953042
1.208520390029113
1.258983985953129
1.294940506650934
1.319601950264031
1.335635650014782
1.331303508315922
1.312568920894692
1.292494114311017
1.266901141075319
1.224543274245776
1.143519339450524
0.8985456536675671
0.1480042098609418
0.2014935085679063
0.2592943547749718
0.2877918861685104
0.2867632273465839
0.2710994959300491
0.2795692317087576
0.3045573952081124
0.3446394365855862
0.3662020483057155
0.3789014093940127
0.3964396917251776
0.4340502124749196
0.4732307319453732
0.5108686157461865
0.5478783210812146
0.5870670609776931
0.628258905226136
0.6728005289616744
0.7201898200000395
0.7710169282160138
0.8194528205474362
0.856408787007233
0.8227577609217315
0.6854913064134305
0.4558706812261601
0.1713587724799681
0.4139953863941082
0.2445794805508935
0.2825848553840336
0.3011722464197827
0.3271577248446902
0.3478429349108315
0.3750444515906629
0.4007262955825041
0.4320329671654045
0.4640613761153707
0.5021587263765778
0.5427084424101636
0.5941194534321413
0.6631836171043398
0.7810236262580758
0.9763717206906173
1.110043653340622
1.219424570025226
1.270927566252207
1.306657945794143
1.33266244345093
1.349577601664695
1.350177356220452
1.338716203160849
1.320338670040758
1.295065294084703
1.247140539659808
1.164109719464368
0.9607113591007839
0.1350864972566576
0.1470030966511481
0.2047608666673551
0.2649157127937102
0.292054142128076
0.295115209849164
0.2785336231127641
0.2876867244459335
0.314313649289741
0.3555466234267736
0.3788996592516568
0.3932299130321428
0.4128356533729352
0.4506607683471029
0.4913655130801136
0.5291441675839409
0.5675321429038711
0.60668266063156
0.6484897657223615
0.6928972768114837
0.7400322222074374
0.7899357267536625
0.8375552027344572
0.872242449792404
0.8371716798358442
0.7015418479662496
0.4873951881222729
0.1892691581581765
0.4927995777158802
0.2347441838689178
0.2707956034619786
0.2882660405949654
0.3144286269535511
0.3332805544778543
0.3596304264559943
0.3833921216865162
0.4128564449018699
0.4416415293890564
0.4766825721071589
0.5126308860545294
0.5571619478131635
0.6059233217576498
0.6776081688570611
0.7926126132785775
0.9889478380505383
1.120490901162853
1.230832542514069
1.282135621963447
1.318102558868372
1.345896930975729
1.362908875539341
1.369975102989979
1.364908209394169
1.350728985315678
1.325569945525656
1.26828016563993
1.178603666241005
1.005759009536559
0.1454632115463221
0.1316452852951566
0.1495822127497472
0.2071095887321739
0.2680674025283266
0.2988883361132221
0.3006593635907208
0.2872228933991245
0.296747703367201
0.3234675218918526
0.3668388359416649
0.3923490807735251
0.4086347800287144
0.4290664548447745
0.4686390654250112
0.5096248897127489
0.5487612624648407
0.5871856667216817
0.6271669386076659
0.6690656713938052
0.7136144377293012
0.7605282400204373
0.8097978126294643
0.8571437068558216
0.8908819669926721
0.8519210842054162
0.7205122133009587
0.5227295089339373
0.2116646408358078
0.5387416020194595
0.225621598867115
0.2602972786176123
0.2762106945640101
0.3008813310629869
0.3211141645769591
0.3451337517350281
0.3676604612788872
0.3943545257822146
0.4219854693360768
0.4538983973109052
0.4876206465080748
0.5267832770406244
0.5692156251542164
0.6210289138300545
0.6903992245088068
0.8062391428256117
0.9994182640518804
1.132245522272219
1.241376898004721
1.293375468321472
1.328794409008178
1.359498344109566
1.375568346118431
1.388223143766422
1.389819996616805
1.382517198256376
1.357879986557304
1.292037727546855
1.191728831147274
1.061493046198715
0.1949734677715512
0.1441378493647195
0.133821787680433
0.1494907739436656
0.2091988819542673
0.2724842236342233
0.3034363278937615
0.3084767631905048
0.2953032074427602
0.3054250525863381
0.3339288745063022
0.3783832145509404
0.4060925136855059
0.4243001315195959
0.4468066854448182
0.4867431651651795
0.5291635831969935
0.5684071965117358
0.6077859056688675
0.6480118098816026
0.6903323602643789
0.7350092788227608
0.7819844338786064
0.8313012875819646
0.8794863272204066
0.913488792574238
0.8716131324044173
0.7439564018376307
0.5603179622778847
0.2347395890210904
0.4229945957247385
0.9612308326457663
0.2172862777051469
0.2505356291888005
0.2660323555502399
0.2890717476762408
0.3076715160484756
0.3318255933189634
0.3528096728068452
0.3790900959639438
0.4042873769835729
0.4343789219201326
0.4649014826639584
0.5011520585998898
0.538962064301731
0.5844378718088249
0.6345297105382994
0.7056878406816577
0.8193894886359994
1.011780641058515
1.143212831250223
1.251901607410593
1.304174586825663
1.338975579495116
1.371098589161335
1.38847655001331
1.403420521223619
1.411697916282697
1.412299821430483
1.394366270224972
1.321337022710931
1.195190469221203
1.146169718066929
0.2700896477579461
0.2037054435485068
0.14801641224007
0.1331767475854429
0.1507133753488918
0.2109189978487366
0.2758407980416349
0.3096080584513872
0.3146480304168708
0.3043617768466175
0.315081800863749
0.3438474067767662
0.3904507807046819
0.4204789936260824
0.4408921189550474
0.4645367958262164
0.5061357484921521
0.5488073519995635
0.5890972451306126
0.6287935866794853
0.6696607666078577
0.7123598707935925
0.757433528246348
0.805071825064729
0.8552055593454642
0.9061734723616461
0.9418255212874382
0.8951080505067667
0.7679691798527009
0.6327359437645649
0.3149794089647991
0.4175432476357586
1.016251141738908
0.2086404376381504
0.2415069824201007
0.2565807335381027
0.2783915400798396
0.29547365651636
0.3182234837296862
0.340090440450047
0.3642314306456568
0.3886175837938656
0.4158986592416293
0.4451453091571523
0.4782189683093882
0.5135662706973289
0.5541113562063973
0.5980829217369176
0.6507642253545692
0.7201258744770846
0.833950130555406
1.023281012756693
1.154619278642876
1.261811677240551
1.314721996028848
1.348761136321657
1.381190085999958
1.400092389097439
1.415164649078893
1.429782059321305
1.438435654653909
1.428424085097184
1.34286200611422
1.25284851845345
1.151831975681251
0.3297467446814526
0.2946878980548177
0.2134929081028235
0.14964621740749
0.1340636755644457
0.150660978543653
0.2130541088297071
0.2797170003147201
0.3146071599832124
0.3225742486732657
0.3130711316979257
0.3245872469014334
0.3549766548836322
0.4027275434853592
0.4352558666272044
0.4578011342411456
0.4835667409006182
0.5256013520867169
0.5695463486259963
0.6102059749275007
0.6506417047864631
0.6921044634272782
0.7354768420264263
0.781549111163969
0.8304614853247319
0.883678828415113
0.9398761886805428
0.9774484768459132
0.9359377988893561
0.8245511290020396
0.5863641250846048
0.7781339916735871
0.3184036774539408
0.3577494363472876
0.7452487948865825
1.140435009002315
0.9856666961016437
0.2014100455917659
0.2333342047750173
0.2478041086242911
0.2685105213085684
0.2849335840085407
0.3063731997501199
0.3264110692711634
0.3505046560751935
0.3735301301092917
0.400400090397337
0.4272375319933023
0.4582578259784558
0.4906608760214109
0.5283803858938058
0.5677468428022318
0.614630056136803
0.6663149152526653
0.7364103746434802
0.8484357348039638
1.035650366402323
1.1656611867829
1.27129537872389
1.324713647146806
1.358193443068147
1.389681660717939
1.412313932551744
1.426932862875287
1.442483559267556
1.456828487366982
1.452568068994438
1.408378351757063
1.30135352105976
1.176096402146048
0.3704018148818145
0.362798941204005
0.3093128081316841
0.2209788265776848
0.1522251653308738
0.1337166207374902
0.1518710320473291
0.2145688048173311
0.2833184331381692
0.3208600678699344
0.3293017039043488
0.322760672972741
0.334917409260956
0.3657482581429369
0.4156259954835139
0.4505241557038027
0.4755384879711445
0.5026459479744707
0.54622414607718
0.5907079789112184
0.6322119705380932
0.673340898731597
0.7156947377638812
0.7603552027745768
0.8078902920156157
0.8603255322853621
0.9180890750164379
0.9829978392589436
1.041262626844156
0.9809267316591385
0.8139967837554097
0.9311607316235261
0.6293875657559929
0.8071230260784106
0.4098650674854954
0.3605333395829933
0.7865368826325584
1.150450422847223
1.059682643015067
0.1974819600373486
0.2255579724053744
0.2392685409277249
0.259102850246416
0.2750301243446873
0.2954265877211512
0.3140393862445017
0.3367183394894224
0.3603985310242661
0.3852415636283663
0.4113294906385227
0.4398494761765122
0.4706987577343625
0.5053757527695828
0.5422499421182878
0.5844664197078548
0.6308557854966735
0.683489044890762
0.752485650868297
0.8639393345909012
1.047645698467912
1.176616052674023
1.2800609962484
1.333808321419696
1.366722379268251
1.396034446518357
1.419376692369861
1.438160594612062
1.453548618702477
1.469533456742788
1.456872080497395
1.473078687649738
1.40346304679171
1.240923193235559
1.179458818330337
0.4050383220003911
0.4084618674324527
0.3772443742101825
0.3229894048160051
0.2290506587950834
0.1544048548540727
0.1346661100373103
0.1520637545037087
0.2169641273838572
0.2871848672870109
0.3263939406771591
0.3375320720391001
0.3322496437874076
0.3452032891221532
0.377616083050889
0.4286936020029913
0.4662727189699003
0.4936869228741042
0.5228327123234564
0.5672307235541598
0.6127939082905985
0.6550878506227075
0.6972144201901784
0.7411376423185666
0.7874409756627927
0.8387211926674442
0.8959270629952082
0.9640114730232696
1.054746426493515
1.09526615642887
1.074166185713349
0.9588974444853231
0.9925384891537952
0.6121233554767777
0.7701976171669008
0.9170015906752235
0.4109159341297726
0.6311141262005593
0.3734787930026112
1.0189076355568
1.179674718956032
1.126843479935597
0.2001609175901426
0.217685755441077
0.2317220383202687
0.250366181763788
0.2659771048936016
0.285346335941314
0.3031220715970307
0.3246009016608163
0.3463776462828046
0.3712091202325473
0.3960010653435513
0.4240161389333099
0.4526335940164989
0.4850578571023177
0.5194932359880465
0.5590087204399217
0.6009663320293444
0.6483413183314533
0.7011444785830304
0.7696869036288577
0.8795637823484513
1.05982415196783
1.187117790340864
1.288016601552477
1.341687868180607
1.374315311280855
1.401123100118467
1.42419798962049
1.44338779674665
1.463263146297854
1.468124047997924
1.470915512032831
1.474051159919974
1.442647305078398
1.318138067775222
1.194701163493127
0.4296806275615152
0.4458901358786623
0.4217518302495725
0.3944602327321753
0.3361299311718352
0.23734523833596
0.1574950031022397
0.1347641282889929
0.1536120463909575
0.2186936918242809
0.2911420369145082
0.3329331768692636
0.3450222971465288
0.3424911153997973
0.3562938621507269
0.3893935390468686
0.4424793227361812
0.4825391736776186
0.5126031213667169
0.5434439245918664
0.5891891853022565
0.6358117587002924
0.679192352727764
0.7230250454769354
0.768822232999806
0.8190359588474555
0.875004244523177
0.943163312504872
1.041971577746215
1.112476469434091
1.103833332555953
1.122232660542818
1.067520311674544
0.9967032864092248
0.9691999463920071
0.7338345522399446
0.8104205438278005
0.9539740522398915
0.4383392615915848
0.7209012818542629
0.3798286214146497
1.076172278410973
1.16999859643054
1.142159618191731
0.1830192627273464
0.2123539206453225
0.2252546339123903
0.2423813382453563
0.2571864397750989
0.2758515271074146
0.2929716039184029
0.3134050283137359
0.3337620785954246
0.3571765236450333
0.3824965430034306
0.4084590876948284
0.4363452557524738
0.4665479480582154
0.4992580884864561
0.5360206793839901
0.5756667832761893
0.6186844875765104
0.6662238775734706
0.7192738584019188
0.7872166113605007
0.8956473974990337
1.071655910433639
1.19708393916464
1.294931953946587
1.348401338408629
1.379832961592195
1.40608007254446
1.425502302898927
1.449706277246742
1.454896497991226
1.46619203646904
1.474140219551126
1.47298654827571
1.466254753676125
1.457432326379541
1.248250610567601
1.441271200306674
1.190106580519975
0.4433649315326293
0.4703566138428254
0.4571243606016896
0.4405285462430757
0.4079924225029769
0.3501890468000878
0.2470514704873399
0.1605515354111689
0.136101850781987
0.1544286141541643
0.2215161601489582
0.2952166036349419
0.3390998024501062
0.3537964825511067
0.3527959314177826
0.3676543949046457
0.4022183149653362
0.4565517553572432
0.4994164015136996
0.5321379277379745
0.5650260857582778
0.6120971906461561
0.660081977144838
0.7052959566771664
0.7511152323630446
0.8011537364693641
0.8558632675013756
0.9233445468416051
1.023717783560108
1.094730470738023
1.124679027151135
1.144231058251242
1.142406594645739
1.104395230878545
1.062040187904845
1.03373301500899
0.7396077785004306
0.9265443609874705
1.019481136622642
0.6373957851732905
0.4051532636049716
0.5716767461623632
1.014290818312909
1.13986607529822
1.182120223284018
0.1784246799998305
0.2043569425228639
0.2194937490274688
0.2343261943295244
0.2491774022337934
0.2668798758658717
0.2836704994553366
0.3031934887255278
0.3224897036123867
0.3448829202474857
0.3681134628088044
0.3941118820412203
0.4207039531954013
0.4502299930019131
0.480928163221277
0.515374376393019
0.5527389576679925
0.5933729695465237
0.6366869928601736
0.6846922123833724
0.7377719567886856
0.8050129037682416
0.9117121069017229
1.083077696323995
1.206137801801614
1.300646574061844
1.353131868291982
1.384567115693364
1.407299143964383
1.429743380189511
1.450210032954918
1.433744586534765
1.450519131498798
1.451748796995223
1.479264234141459
1.474915809245341
1.459651230672413
1.479705527158068
1.331675834670646
1.470787489000933
1.196192946851101
0.4442129179653428
0.4779530542627843
0.4801239666033276
0.4767187971700751
0.4537737761053173
0.4249554854072185
0.3656979275288846
0.2569580291124408
0.1646436939936052
0.1370319098607102
0.1566075611471191
0.2238196565406023
0.2996986640629775
0.3461939265229775
0.362277936201513
0.3638832691751691
0.3798442767974382
0.4152731372572048
0.4715951832545702
0.517018845328938
0.552613216449389
0.587697096908377
0.63629338290285
0.6864678418154054
0.733701545057885
0.78398445000313
0.8386287646872962
0.9046310932562421
1.00701877238084
1.087052106670391
1.113887583759553
1.09766266280711
1.142017007578569
1.158567697725488
1.149630803671685
1.145156268552159
1.07957456244845
1.063644535173065
0.8951537673404435
0.9445730842073702
1.042359982474554
0.7368494613549357
0.4083353320849505
0.6069727419925711
1.06284282580188
1.147105871045468
1.186659288859576
0.1727997982337711
0.198510858339119
0.2107998308871822
0.2272134233869866
0.24192756987352
0.2584694802256743
0.2748084039033656
0.2935409733853883
0.3120590954704832
0.3334741401983619
0.3553523626381987
0.3798767344849221
0.406807488856529
0.4342364235281012
0.4639022493198166
0.4967141900611597
0.5320893854002867
0.570200809862229
0.6114556044034418
0.6552435544735805
0.7035205527136486
0.7566171927633071
0.8231093172155224
0.9277620260108574
1.093724950464524
1.214124538181651
1.305004136151665
1.356755731709794
1.385626332537893
1.414610015248126
1.417245254444038
1.440772313145059
1.431023050798394
1.441351519138725
1.451393721668538
1.476729180471792
1.463528970599976
1.459608180525797
1.482038355847922
1.473147997541275
1.252717558347101
1.482879081616505
1.19627840730458
0.4384646106006448
0.4777783025073871
0.4885581664525047
0.4991274737988234
0.4888263526414777
0.4716254930383115
0.4409879502702564
0.381683520038075
0.2690036184971235
0.1691513685370492
0.1391404426565576
0.1584616670211105
0.2273902922605769
0.3043894128431887
0.3532606534782982
0.3721659297151743
0.3752488053928397