/*--------------------------------*- C++ -*----------------------------------*\
| =========                 |                                                 |
| \\      /  F ield         | OpenFOAM: The Open Source CFD Toolbox           |
|  \\    /   O peration     | Version:  v1912                                 |
|   \\  /    A nd           | Website:  www.openfoam.com                      |
|    \\/     M anipulation  |                                                 |
\*---------------------------------------------------------------------------*/
FoamFile
{
    version     2.0;
    format      ascii;
    class       volScalarField;
    location    "1000";
    object      nut;
}
// * * * * * * * * * * * * * * * * * * * * * * * * * * * * * * * * * * * * * //

dimensions      [0 2 -1 0 0 0 0];


internalField   nonuniform List<scalar> 
18230
(
4.568434197244822e-07
1.648940575640638e-07
6.057672849684498e-07
6.736224241454349e-06
4.018542013570685e-07
4.153245504812834e-06
1.399617818284733e-07
6.873406759067126e-06
1.674831455940749e-05
8.322631342268377e-07
4.005992319544025e-06
9.52518468693672e-06
4.026720621500915e-07
4.248891047334438e-06
1.756657308118902e-05
2.952557508487865e-05
8.357156264081571e-07
9.148495216987881e-06
1.014485804438104e-05
1.653676911944375e-05
1.183981257240653e-07
3.290167069960137e-06
1.014334718277313e-05
3.132654680483401e-05
4.622691891630074e-05
8.85423186339951e-07
9.513399843337693e-06
2.234564574436985e-05
1.768931064401729e-05
2.596359828179211e-05
1.583969907274028e-07
5.731725596478351e-06
7.627576222828769e-06
1.733742383844066e-05
4.828973907645611e-05
6.725433469265268e-05
5.516469405318063e-07
9.049920286354458e-06
2.273621883485239e-05
3.758738411872214e-05
2.764917321915164e-05
3.814033351080969e-05
1.930336773455119e-07
1.030162783276128e-05
1.215041022720289e-05
1.219770035235249e-05
2.547446529627974e-05
6.840595108489917e-05
9.259708761113499e-05
2.868247798234102e-07
9.54414733677079e-06
2.080044990091561e-05
3.736194896700744e-05
5.614309156118724e-05
3.980057863566971e-05
5.330241527075834e-05
2.074684747940435e-07
1.147016647701242e-05
2.265031050417133e-05
2.007858563958223e-05
1.749496759663431e-05
3.486607237421852e-05
9.12011154220081e-05
0.0001219178070650155
1.562984561919697e-07
9.301387584725282e-06
1.969261784325641e-05
3.297920033179358e-05
5.436891961942445e-05
7.699623892702246e-05
5.471455092847562e-05
7.223975188914598e-05
2.226704875052415e-07
1.123645614102506e-05
2.492195539644715e-05
3.865834870914836e-05
3.040814049642439e-05
2.386770788531508e-05
4.498834746179309e-05
0.0001150724854880158
0.0001545233098576699
1.041211463703627e-07
7.811962251422389e-06
1.718621263804781e-05
2.946915293696802e-05
4.585465077650588e-05
7.221773122083519e-05
9.93642835483943e-05
7.302994745561401e-05
9.49429726205793e-05
2.139136552646495e-07
1.126119283321191e-05
2.503473200936836e-05
4.248447469868676e-05
5.951851197965662e-05
4.364100755458546e-05
3.116044882400412e-05
5.534290778639076e-05
0.0001371587347289735
0.0001893408928080869
7.103243892182438e-08
6.366598774638225e-06
1.466396610255525e-05
2.384659385177852e-05
3.896223435431499e-05
5.856467086990446e-05
9.00346584961285e-05
0.0001220385014992973
9.492920593663209e-05
0.0001213751496863438
2.194866531807069e-07
1.105154207900303e-05
2.513768543374112e-05
4.283546820477978e-05
6.452658825209885e-05
8.651813743565839e-05
6.059792797470464e-05
3.970611275930281e-05
6.516025925846968e-05
0.0001489248373608379
0.0002246321833056889
5.412467234179806e-08
5.383969294566427e-06
1.303985419214446e-05
1.803151394306217e-05
2.869682896542765e-05
4.763824159264874e-05
7.030785840232888e-05
0.000106385442680842
0.0001435713932957966
0.0001202940186496801
0.000151547311385421
2.400231331027971e-07
1.082995069233101e-05
2.48026845621967e-05
4.263949653785765e-05
6.476816763085215e-05
9.217603089199782e-05
0.0001197562808248916
8.160602801100736e-05
4.988904834633407e-05
7.393247772205038e-05
0.0001654224193670137
0.0002578520024075269
4.456804837359055e-08
5.195371670788776e-06
1.209376492516794e-05
1.535581539068767e-05
2.146820529109186e-05
3.306493115218054e-05
5.14259786596483e-05
8.000265294977328e-05
0.0001201985987405814
0.0001622784015633076
0.0001477877648003805
0.0001837372207457878
2.411086204104801e-07
1.073566196710218e-05
2.43997191055719e-05
4.19874770449482e-05
6.413015652166708e-05
9.182341134798288e-05
0.000126058604039803
0.000160886026412931
0.00010767935658535
6.18723359135143e-05
8.148259356139738e-05
0.0001888205565186464
0.0002870805693576381
4.018225213005589e-08
5.194838223072829e-06
1.191845530313681e-05
1.503670367518024e-05
1.988195580514208e-05
2.545463737538138e-05
3.734422486325904e-05
5.60265147743197e-05
8.118958879647967e-05
0.0001273723896355661
0.0001766320935053567
0.0001736866548700083
0.0002174336842605246
2.438724086501445e-07
1.056819780096207e-05
2.44618465473545e-05
4.138887285505002e-05
6.342947389992443e-05
9.094664277263597e-05
0.0001251016840783161
0.0001669949957823871
0.0002111026487568497
0.0001296033047013133
7.696639820843066e-05
8.881009235952636e-05
0.0002049105546313683
0.0003110051028280362
4.076093246808387e-08
5.346678952840473e-06
1.191828393596322e-05
1.52950455676105e-05
2.331826992541546e-05
2.353208303669406e-05
2.935090538991302e-05
4.081852147873749e-05
5.935620618166463e-05
8.642610233331504e-05
0.000124892926134481
0.0001863867783753087
0.0001800361392971287
0.0002511222106341931
2.645453473628854e-07
1.052473405416257e-05
2.415473191154545e-05
4.151765611244546e-05
6.281893382029387e-05
9.010408194498586e-05
0.0001237959837704475
0.0001659531995080625
0.0002164050480503133
0.0002715600819548744
0.0001624460040385787
9.605370804000611e-05
9.743947228578254e-05
0.0002126408857211535
0.000329911838460151
5.498961905850984e-08
5.56695090052312e-06
1.216636579093444e-05
1.558966426636685e-05
2.619560365499011e-05
2.529418776044213e-05
2.935978795051455e-05
3.297428752044199e-05
4.324119346866274e-05
6.436813336924667e-05
8.919242190870513e-05
0.0001275863719589561
0.0001913005793709946
0.0001883979273820713
0.0002809848043294457
2.602613518621185e-07
1.079351077232758e-05
2.367700932347569e-05
4.083961358279995e-05
6.281482227965376e-05
8.923160062800809e-05
0.0001226009003213524
0.0001636473779364357
0.0002146765246731738
0.0002760159996267164
0.0003442946734229174
0.0001955655346053032
0.0001209381262975009
0.0001095227089308425
0.0002222227129927413
0.0003456777404956305
7.242543502326112e-08
6.906536144548695e-06
1.303141697254531e-05
1.763685926591171e-05
2.677187365407957e-05
2.710777992435972e-05
3.509128167349096e-05
3.697406496085086e-05
3.736608906384406e-05
4.632505718167341e-05
6.527539429321264e-05
9.114807686291192e-05
0.0001295475888451405
0.000182188148229838
0.0001930597604781867
0.0002622026293809013
2.655626603162817e-07
1.056314394799826e-05
2.389327303220468e-05
4.018370890986858e-05
6.21113496481362e-05
8.901419761395516e-05
0.0001213285829424897
0.0001617347937671719
0.0002115195932443388
0.0002733597059603034
0.0003474049261956301
0.0004310869429669991
0.0002396175344952249
0.000151973532083626
0.0001275958642059837
0.0002378559687651977
0.0003617330491776973
7.533198274769224e-08
7.700182240871825e-06
1.482226028037628e-05
2.093803524602896e-05
2.862023497515886e-05
2.834270814105616e-05
4.443890574314345e-05
4.573871332964539e-05
4.647752149148846e-05
4.54394152504088e-05
4.87900111520666e-05
6.616536030679585e-05
9.098496196182015e-05
0.000129089360681522
0.0001757076805425367
0.0001914944269736411
0.0002466863082844715
2.572601431137474e-07
9.986853571474387e-06
2.371537465438952e-05
4.040916434988688e-05
6.110785216929776e-05
8.832404700528616e-05
0.000120854010326517
0.0001600780892573485
0.0002088927102998337
0.0002694223100976112
0.0003440235182205655
0.0004328345325757287
0.000533433251102528
0.0002936736409522892
0.0001858159575977537
0.0001540700095373215
0.0002621406645439071
0.0003848463633814851
8.179525023377525e-08
7.29620287094836e-06
1.621708138822733e-05
2.496997665876417e-05
3.219979473097434e-05
3.307160010185273e-05
4.906462789050722e-05
4.71802249902221e-05
5.771277125703062e-05
6.590627080789305e-05
6.188024916266759e-05
5.542895239040946e-05
6.730265128697527e-05
9.068006818215491e-05
0.000128952902978158
0.0001753079227367531
0.0002116252855426203
0.0002586944364360869
2.121283050592791e-07
1.006372088651748e-05
2.294266231466308e-05
3.973228149141842e-05
6.114963095539956e-05
8.670732482158289e-05
0.0001199667219330128
0.0001593260309683932
0.0002070218390897329
0.000266165043598378
0.000338804352779815
0.000428622838195466
0.0005350679200684949
0.0006537739679562316
0.000362787123731531
0.0002279195546467561
0.0001915988429947896
0.0002980920986341203
0.0004125898136685971
9.108411488292625e-08
7.298049696856676e-06
1.562818286612138e-05
2.685689195067499e-05
3.75691958357756e-05
4.292700752679512e-05
5.425870283410954e-05
4.658197644473294e-05
6.569442354362277e-05
7.512580430403403e-05
9.513721735918994e-05
8.901338853945522e-05
7.519850293312133e-05
7.306356604467534e-05
9.093204753120815e-05
0.0001270087590823031
0.0001847718056722064
0.0002333211799235554
0.0002700148308391988
1.994574867354004e-07
9.308232941486427e-06
2.261165547864275e-05
3.886898386043583e-05
6.042436792996076e-05
8.661733594619014e-05
0.0001183671253800202
0.0001581585651435911
0.0002059779648185491
0.0002633598433460097
0.0003350469750682262
0.0004217796232216374
0.0005298168878233769
0.00065738282672839
0.0007947370641649781
0.0004647008621440167
0.0002856650863626158
0.0002423475889135498
0.0003512058031635456
0.0004420911862440772
1.037279324627808e-07
7.330007814147655e-06
1.56377410195985e-05
2.60891571267918e-05
3.975132944111484e-05
5.290217635487199e-05
6.267985437507339e-05
5.828016549700185e-05
7.869444328236018e-05
7.657137177866665e-05
0.0001030123371588914
0.0001258709088631543
0.000136594363767162
0.0001191025634189262
0.0001017126969807679
0.0001022979561236591
0.0001265673806788358
0.0001874299933981555
0.0002631443486379236
0.000304624439104467
2.084739118704185e-07
9.04298657330469e-06
2.121697017480411e-05
3.826791781170154e-05
5.881909976007741e-05
8.591447645316997e-05
0.0001179832693906442
0.0001563356463218316
0.0002041283453451831
0.0002619889821618531
0.0003314422568120608
0.000416985691057782
0.0005209137804615288
0.0006512169300780078
0.0008038828787820102
0.0009601925044714669
0.0005948740150293987
0.0003633129729731447
0.0003107046879938803
0.0004198994809633285
0.0004585813468468573
1.284164197553196e-07
7.443022913800842e-06
1.574489366099637e-05
2.620887288470705e-05
3.881316713517915e-05
5.540315404120931e-05
7.167375586393849e-05
7.8050002258069e-05
9.319947206320938e-05
8.25655447453958e-05
0.0001161545331656882
0.0001233721368109803
0.0001646202423965616
0.0001792638135517048
0.0001874929078834103
0.0001744367312630688
0.0001644686937566425
0.0001539372809775392
0.0001886475417288934
0.0002694137642593149
0.0003302650041832211
2.119768393529813e-07
8.993032784367572e-06
2.069080706387399e-05
3.62363998481362e-05
5.754309799776473e-05
8.323738144465206e-05
0.0001164527365662071
0.0001555391950256926
0.0002019485344316197
0.0002596579018886227
0.0003295276327662671
0.0004130702642033901
0.0005151031952573293
0.0006325729768041721
0.0007960773263965846
0.0009775455386794149
0.001155268826491399
0.0007574126726199042
0.0004612157312468266
0.0004018221553372248
0.000506593387302755
0.0004519244388189142
1.000731799544361e-07
1.028368436765558e-05
1.608646712619031e-05
2.637148469007448e-05
3.900128318241833e-05
5.431957794935883e-05
7.438429854607385e-05
9.405701010669213e-05
0.0001077710808550786
9.810237551409297e-05
0.000136770341959276
0.0001399408649482812
0.0001708747133266901
0.0001988879882175001
0.0002117607062678608
0.0002265198283774434
0.0002456475800882927
0.0002621420952589902
0.000243543413305771
0.0001975747208123428
0.0002831665444211259
0.0003412203117767865
2.092115748960235e-07
8.741960811353613e-06
2.07587642921727e-05
3.536634903102042e-05
5.505670670495894e-05
8.106433514196184e-05
0.0001130598208078832
0.0001536101878567496
0.0002007417898846359
0.0002569867105764844
0.0003268021518951669
0.0004105113134816797
0.0005105959433435747
0.0006286776292829276
0.0007850303104707411
0.0009680348024621827
0.001182686322670814
0.001385859913359274
0.0009581826822343344
0.0005777805742709396
0.0005159353094000735
0.0006121656272892677
0.0004694629847839515
1.280529545608842e-07
7.479497957876864e-06
1.912214578874776e-05
2.682228381390157e-05
3.911469136384853e-05
5.450189557698792e-05
7.297975482379825e-05
9.689373196423092e-05
0.0001203379312705277
0.0001365623491711095
0.0001516800210249366
0.0001692077186420029
0.000198322119295161
0.0002234060939397916
0.0002682635570461291
0.0002467169131178168
0.0002485765864544552
0.0002704592271373058
0.0003119165092424224
0.0003431580544802245
0.0002341125358026778
0.0003138451531219076
0.0003569944643043674
1.745814160941354e-07
8.586121974850473e-06
2.004395350021419e-05
3.554972961624654e-05
5.390328227130749e-05
7.835307503345407e-05
0.0001099413119614055
0.0001494060145144707
0.0001983208194380983
0.0002551887052785737
0.0003235598702922476
0.0004067545794327848
0.000507254111942274
0.0006273317406238994
0.0007673407109789496
0.0009556516607099004
0.001171772593308783
0.0014247036331381
0.001655535690659224
0.001202704821575396
0.0007111199267823635
0.0006425601767127148
0.0007351927494699848
0.0004866547534224745
1.052536583959788e-07
1.015392857364923e-05
1.582520012763537e-05
2.986018482758695e-05
3.982248196015507e-05
5.469176492248144e-05
7.29713244689687e-05
9.520275852759409e-05
0.0001230522183938217
0.0001516371379380503
0.000170557869285689
0.0001880055365496811
0.0002082517075973747
0.0002413101268748797
0.0002842611121446627
0.0003323115423835378
0.000318237949751241
0.0002950991869233219
0.0003022052563608818
0.0003424165919579167
0.0004063254137647031
0.000310378235469389
0.000335766483370206
0.0003812444990239841
1.611620539445103e-07
8.31002610350669e-06
1.960059554470294e-05
3.43518973973401e-05
5.443104785525696e-05
7.72529642802359e-05
0.0001070938107094284
0.0001449998029412388
0.0001929774845819569
0.000252129794267788
0.0003208420134616208
0.0004028628065582898
0.000502353076029237
0.0006230520352146747
0.0007597692684497148
0.0009458604794912081
0.001158067267065754
0.001412430280714245
0.001705605023151704
0.001965685165608458
0.001490222069540221
0.0008592743490614542
0.0007351784182083519
0.0008801908610073114
0.0005062869483442624
1.047262673228678e-07
6.822505045156435e-06
1.874527724428278e-05
2.609553301342381e-05
4.288441892086587e-05
5.564282741592225e-05
7.339100802836225e-05
9.503451626981628e-05
0.0001213085136210607
0.0001541098394561119
0.000188111678168475
0.0002108702152487546
0.0002306206733534201
0.0002544916453086514
0.0002923058997693184
0.0003415090166480323
0.0003995504450937151
0.0003990410270779618
0.000352975428778865
0.0003433702365237231
0.000373733200431961
0.0004309624915186507
0.000395338500231403
0.0003339089960277528
0.0004096126375852502
1.589153446870777e-07
8.320543313613785e-06
1.903143051013824e-05
3.361842883736096e-05
5.271047743540679e-05
7.803844713477877e-05
0.0001061710474874461
0.000142136748671911
0.0001873226651480425
0.0002453079812536478
0.0003165685031533945
0.0003993401472366167
0.0004973503124860446
0.0006172495984457864
0.0007606338967934434
0.0009355474253043352
0.001145982732195113
0.001397204704830906
0.001693238012125373
0.002026658784369448
0.00231568412439575
0.001805992365908714
0.00102663019657518
0.0008525769462896022
0.001046877485941622
0.0005395164480574163
1.098807744281452e-07
6.769105449227682e-06
1.481274230843226e-05
2.92274762663047e-05
3.88874277561942e-05
5.85621530672183e-05
7.448519127026529e-05
9.545652131180347e-05
0.0001212458414696443
0.0001519677226358957
0.0001904209673049149
0.0002306986710838806
0.0002576854547675973
0.0002805926629970357
0.0003084702562658281
0.0003528517115690632
0.0004081283417570994
0.0004748437816916223
0.0004872680022005684
0.0004135885756141056
0.0003860695561463072
0.0004104874531215916
0.0004464527167635504
0.0004579480980195233
0.0003384578818673437
0.000458234473429561
1.774235377697337e-07
8.301208511978973e-06
1.944995688278859e-05
3.290218292713588e-05
5.150133393683176e-05
7.56167365480718e-05
0.0001071571841527561
0.000141456744894312
0.0001844209776593139
0.0002382902286722098
0.0003081377172391418
0.0003936927534767577
0.0004930002685834222
0.0006112836078932714
0.000754372670273466
0.0009268590346922989
0.001133854851426617
0.001382722710116173
0.001677136445356645
0.002016414351090819
0.002387879155746709
0.002699058595921383
0.002147576578717637
0.00120806564816051
0.00100764091978986
0.00122850046647885
0.0005685184490833809
1.1709805200532e-07
6.758850568946907e-06
1.46298807203102e-05
2.473820310017232e-05
4.196785119151923e-05
5.432386109270533e-05
7.696361227326319e-05
9.662908764230507e-05
0.0001215609943703909
0.000151788216041747
0.0001879072509095081
0.0002326877421053001
0.0002799601960847025
0.0003120238121076442
0.0003386327632958811
0.0003708622774144494
0.0004222283794309734
0.0004851854228375355
0.0005601176315895754
0.0006082316290516508
0.0004915783701089956
0.0004218587585503732
0.0004274995171250268
0.0004434254412012493
0.000478793401842014
0.0003678625820038437
0.0005264148502890027
2.184861927305547e-07
8.164417613330918e-06
1.996504564871251e-05
3.377025147098731e-05
5.057838290864394e-05
7.420169193517263e-05
0.0001039130668964228
0.0001429672224135653
0.0001844249544114014
0.0002360245930379189
0.0003000280108858905
0.0003834583945467985
0.0004863738768760617
0.0006051614372806535
0.0007471966462623419
0.0009178294523341879
0.001123176653912943
0.001368993137982631
0.001660670184672303
0.002000456828151105
0.002381922258105353
0.002782162384256311
0.00310328827088606
0.002436397441166704
0.001418240109930855
0.001200268289782377
0.001428994678776228
0.0006074485140198392
1.194726489318942e-07
6.803977811675434e-06
1.459524826085411e-05
2.457679451684336e-05
3.698539297294441e-05
5.713650386600441e-05
7.270477163081374e-05
9.86752322502233e-05
0.00012267926723174
0.0001522892503388578
0.0001875169966371761
0.0002298359147369222
0.0002817756256064916
0.0003369370091307776
0.0003746320905605914
0.0004052883364107825
0.0004420965634162997
0.0005006893964487836
0.0005719363128715677
0.0006560663583994746
0.0007512357920437867
0.0005731328632131464
0.0004571893745645153
0.0004321234495991624
0.0004296013496707898
0.0004769730598403454
0.0004091180122878765
0.0006156380942498724
2.447399403186146e-07
7.585664131850546e-06
2.013445945879437e-05
3.478671404946967e-05
5.28171892750948e-05
7.371762444514067e-05
0.0001021102804071043
0.0001388354012575055
0.0001872178906224322
0.0002375159290583937
0.0002993038287410564
0.0003748564756909566
0.0004744334487010058
0.0005969857417498684
0.0007392970881048335
0.0009092244346380442
0.001112641070366269
0.001356401523350147
0.001645117492696028
0.001982805464311403
0.002366890937399115
0.002783484544466253
0.003193883957315693
0.00350515862666499
0.002709822005800347
0.001679416318852525
0.001424874181435874
0.001639640834000296
0.0006473739446506929
1.213588540568462e-07
6.732077890732273e-06
1.456434564594528e-05
2.447267479157527e-05
3.681264270255341e-05
5.209140782567675e-05
7.51790084802405e-05
9.455535481958656e-05
0.0001243609022959387
0.0001533623205348035
0.0001879528595666472
0.0002293624559667134
0.0002783377419284491
0.0003384130451409785
0.0004024674196968134
0.0004461775805970623
0.0004811880130009338
0.0005229161631710334
0.0005889315591493598
0.000668796166283478
0.0007625328670214641
0.0008669435589225565
0.000684383326576994
0.0005195207482489239
0.000440734643462263
0.0004112893750349061
0.0004490445828318195
0.0004444302387648473
0.0007363843429890242
2.552996502485181e-07
7.249805006864629e-06
1.880905006378191e-05
3.536405409040441e-05
5.492738835518888e-05
7.782616606321099e-05
0.0001024248668488758
0.0001369245072073085
0.0001820513168245608
0.0002415268435806151
0.0003031832064226299
0.0003763526704378926
0.0004653593303411769
0.0005834258822160365
0.000729441294772942
0.0008996908772949615
0.001102440386750832
0.001344116522819233
0.001630816074307329
0.001965803435721201
0.002349279439383675
0.002771064539168238
0.003204866584316667
0.003596990733051909
0.00386915109600111
0.002921388527485166
0.001973119771708406
0.001656490842603858
0.001884639021963013
0.0007212390294969326
1.230737462017764e-07
6.654229803613047e-06
1.427644280255494e-05
2.429453247564392e-05
3.673170997911326e-05
5.167007073096426e-05
6.993229062612997e-05
9.651340858742891e-05
0.0001204304709643151
0.0001543325178999566
0.0001888944229798031
0.0002295087982826893
0.0002776084947651208
0.0003342036387831714
0.0004034354840953892
0.0004771856077716172
0.0005272656259270186
0.0005671640867284319
0.000613873895738042
0.0006875149106542349
0.0007762618745236231
0.0008791619385763302
0.0009926873603589167
0.0009102748221885413
0.000634830310784293
0.0004717940924057261
0.0003856121136578564
0.0003927755241661169
0.0004448392491683458
0.0008133452162734022
2.733679316906337e-07
7.568599490975865e-06
1.796994658371625e-05
3.317338613805933e-05
5.618420527983062e-05
8.149702406880023e-05
0.0001090558818432959
0.0001382490176047769
0.000180169402653442
0.0002348827075325138
0.0003083355853401679
0.0003830275314574232
0.0004697720717391617
0.0005748388687162069
0.0007143101583151687
0.0008884030254749058
0.001090955538025891
0.001331803046121497
0.001616777616019616
0.001949839088903366
0.0023317559472027
0.002754545804167431
0.003197769799985626
0.003619566506460278
0.003951905990851669
0.004144316174862798
0.003065853462448791
0.002313797713384444
0.002019551234226356
0.00186681992535506
0.0008175165689447258
0.0008131039048900005
1.245607621788563e-07
6.573996661990928e-06
1.422964151751988e-05
2.391574635597212e-05
3.646662546892239e-05
5.12806966318384e-05
6.928425041585627e-05
9.112641810434868e-05
0.0001217312042492751
0.0001505813046255337
0.0001890540191896663
0.0002300167419419783
0.0002774758217131124
0.0003324156596465287
0.0003980321937427389
0.0004779125053090383
0.0005617360867582841
0.000618950418757636
0.0006635204982446765
0.0007155089711051715
0.000796791259352751
0.0008946054642559924
0.001005791735505231
0.001127177431185492
0.001258333406986335
0.000858649135625926
0.0005455701145631
0.0003713935050451846
0.0003483837619526389
0.0005247098428859711
0.0007450289887985201
2.690018796058264e-07
9.247265156643032e-06
1.916542056190793e-05
3.201708128112e-05
5.306489039873135e-05
8.343578471686869e-05
0.0001152710107150488
0.0001481988576125307
0.0001838008892800826
0.0002332690420952746
0.0002999081155421301
0.0003901261076897472
0.0004806680563755494
0.0005838069389907411
0.0007073368258931781
0.0008722749354680156
0.001078285991765934
0.00131861156164865
0.001602542351344666
0.001934665129367952
0.002315245998592987
0.002737616396299654
0.00318436765665703
0.003619758612803595
0.003984738073178814
0.004209287462632459
0.004286261155855993
0.003110017500205848
0.002580834993673368
0.002930197220236408
0.00209892716139326
0.0008542851143711977
0.0008845242971410772
1.202668274416664e-07
6.495162236415483e-06
1.417524286208664e-05
2.385627783517408e-05
3.600584099779182e-05
5.103547689158309e-05
6.869000876326729e-05
9.032612475219453e-05
0.0001162375142642727
0.00015098507327116
0.0001853359614089413
0.0002293577979610353
0.0002772420097622694
0.0003316740153411663
0.0003959602040758373
0.000460875741146899
0.0005621421995997615
0.0006571089595814329
0.00072146829778399
0.0007710136948192144
0.0008280137742984347
0.0009169324748742208
0.001023342226976093
0.001141827677901808
0.001268043014998482
0.001396438638558226
0.001284836365472694
0.0007421351157166182
0.0003922899841864273
0.0002360825692548041
0.0002625570567405467
0.001443743354002755
2.51706725940785e-07
1.065688398375626e-05
2.292807099786963e-05
3.436818780650977e-05
5.070878410103585e-05
7.871350420851116e-05
0.0001182849893333741
0.0001578208454700358
0.000197793026800053
0.0002405589562610456
0.000298838336424638
0.0003802592628716364
0.0004900955898214947
0.0006001270911033681
0.0007227380586297258
0.0008676613703023425
0.00106203141545082
0.00130441636425602
0.001588210048022124
0.001919092953839224
0.00229937254234297
0.002721659646881926
0.003169997377450465
0.00361226262779995
0.003994926082241922
0.004243901163159877
0.004318053292578004
0.003983914404965031
0.002772069983419794
0.003318973953704183
0.002268260008402939
0.00334761559545464
0.002634474046187539
0.001244707423990206
0.00104055494980119
0.0008610358460861795
0.0008914589922731995
1.19737485592297e-07
6.424847242919231e-06
1.401742155631108e-05
2.377751334074577e-05
3.581946381331506e-05
5.052091644202198e-05
6.84113832332652e-05
8.948254952568702e-05
0.0001152549829792165
0.0001454353773125299
0.0001850239165749443
0.0002256598038694627
0.0002756664140099022
0.0003304514576574151
0.0003945089625677883
0.0004492022322645931
0.0005488746214655264
0.0006538448090220461
0.0007636991950549912
0.0008353148352212751
0.000889546176279556
0.0009514867996265415
0.001047484089939699
0.001161012021135419
0.001283483644145951
0.001408471765722718
0.001525470619909166
0.001622276099208168
0.001037729389054402
0.0006824717110201053
0.0001878345470390089
0.0001869738425836526
0.000502450187581753
2.20941729677043e-07
1.120019283411657e-05
2.488933524018783e-05
3.973421769850755e-05
5.341520125273992e-05
7.50628088500064e-05
0.0001111179454240131
0.0001624986750268342
0.0002118550705683636
0.0002605962352350661
0.0003107994845168331
0.000380309068466231
0.0004784513013443348
0.0006121004051619002
0.0007456630304987168
0.0008911395566090078
0.001061501109554622
0.001289096362290875
0.001573513352946512
0.001903877000984406
0.002283077177153906
0.002706005416582369
0.003155783738610459
0.003602447476499536
0.00399628195834288
0.004263425366232516
0.004348791265153159
0.004238023759386244
0.003135283768968976
0.002373340329209734
0.003379365467723998
0.00210205298703009
0.003617596757243784
0.003675012658555568
0.003492435437789728
0.001164297425597865
0.0009962229437365567
0.001236018798489218
0.0009472850451799158
1.352538650305492e-07
6.30978656534427e-06
1.386271591497812e-05
2.33735542179079e-05
3.547946797149831e-05
5.018486008337089e-05
6.763481793425612e-05
8.90627961150902e-05
0.0001142114391588484
0.0001444060825133266
0.0001796160814902163
0.0002245290010557525
0.0002720014730142231
0.0003254990901531091
0.0003891328928887457
0.0004423486376829617
0.0005345175684681867
0.0006218168370974925
0.0007643107035185231
0.0008819559597659355
0.0009604106391448816
0.001018895965322796
0.001085221842706013
0.001186814410904687
0.001304107604209869
0.001424526520067302
0.001537906536851483
0.001631760424213083
0.001655894722847898
0.001473407081903951
0.00032826629509082
0.0007821504924165366
0.0001351957620736568
0.0002241030781286065
0.001347961011124493
1.904280827821006e-07
1.106635645094983e-05
2.515669786793938e-05
4.197968396002878e-05
6.044803228315814e-05
7.821691977097588e-05
0.0001055757668203523
0.0001527252125610601
0.0002189794265847972
0.0002801501613254808
0.0003386579308431259
0.000398103167776329
0.0004805265257313448
0.0005980482109088385
0.0007603332374277109
0.0009222732124365099
0.001095160950218837
0.001294903099407243
0.001560081244845864
0.001889422674086406
0.002267593711551799
0.002689944743344176
0.003141817022259213
0.00359194933543235
0.003993705712162521
0.004275683565270588
0.004375411116476944
0.00407749208702467
0.003572045147724467
0.003363937533719878
0.002185766570690022
0.002691149841587643
0.002302808767327849
0.002825710392355232
0.003364957426886374
0.002807571702342399
0.003259366748466314
0.001105026132750469
0.001674749668812895
0.000957478152250327
0.001400666386318961
0.0008551892585857507
1.62286462696684e-07
6.415674248843964e-06
1.377436473471886e-05
2.295448394312668e-05
3.499911968776464e-05
4.970347126986654e-05
6.714348754235282e-05
8.795702021691133e-05
0.0001135762932160246
0.0001431467025072343
0.0001784203689805235
0.0002194458049679432
0.0002700815828684764
0.0003227629734002927
0.0003835089384924355
0.000436401085484477
0.0005256542534210368
0.0006140981994503682
0.0007245356129229142
0.0008673853201300615
0.00101188232361283
0.001096292503306799
0.001157877303345493
0.00122720511997055
0.00133099713166872
0.001445558607741328
0.001553865739542776
0.001643360524042554
0.001471105557593482
0.001085810592454183
0.001376600761124125
0.0009876453127479416
0.001273970743908953
0.0001692508771175576
9.892309412991227e-05
0.0003921490920812692
1.70321474783281e-07
1.071348010124546e-05
2.444766721470186e-05
4.22051715818936e-05
6.28480110896721e-05
8.622662661210568e-05
0.0001090158280695734
0.0001442809196520672
0.0002053608698114832
0.0002893742318568511
0.0003649817662724523
0.0004352806378894724
0.0005058518949237822
0.000602324065780523
0.0007439222582756713
0.0009398595100344641
0.00113497967191221
0.001340120680501902
0.001573160422721784
0.001878985285199848
0.002253879766308312
0.002675292638859946
0.003127433335229186
0.00358103145530395
0.003989352351955484
0.004282579657307576
0.004396886828336987
0.003924304379641893
0.0035365613077516
0.003495902785104447
0.003439269124108947
0.003408983475304308
0.002216836543885978
0.002749589730086072
0.0037586077929801
0.004236343009242992
0.003526269454235892
0.003699955827323209
0.00407273655484834
0.001240241399528373
0.001634996887066535
0.00100041862614639
0.0009077087993018402
0.001345483460413848
1.289465785660585e-07
9.059646818252905e-06
1.405927792302369e-05
2.287074676094617e-05
3.435046735206468e-05
4.914302858570747e-05
6.655586620839801e-05
8.724082905169017e-05
0.000112161563756211
0.0001422271573273434
0.0001769501195265607
0.000217999056878433
0.000265433900787917
0.0003203443106479117
0.0003794300521992005
0.0004323592898670799
0.0005187222107356001
0.0006070388916686508