/*--------------------------------*- C++ -*----------------------------------*\
| =========                 |                                                 |
| \\      /  F ield         | OpenFOAM: The Open Source CFD Toolbox           |
|  \\    /   O peration     | Version:  v1912                                 |
|   \\  /    A nd           | Website:  www.openfoam.com                      |
|    \\/     M anipulation  |                                                 |
\*---------------------------------------------------------------------------*/
FoamFile
{
    version     2.0;
    format      ascii;
    class       volScalarField;
    location    "1000";
    object      omega;
}
// * * * * * * * * * * * * * * * * * * * * * * * * * * * * * * * * * * * * * //

dimensions      [0 0 -1 0 0 0 0];


internalField   nonuniform List<scalar> 
18230
(
45466029.73451199
32266712.05529656
48098289.10322242
12024365.49951277
32168917.30422016
11040414.14928225
32213124.17462609
12449254.87226691
6633786.068947457
64451700.74067881
11041490.36729752
6333294.807355377
33874967.54029673
9434605.540165419
6804785.626179712
4512939.130619982
71787565.75419812
18433483.80167369
6641413.651528049
4450826.536849196
60962675.80379975
16998662.36528945
5729778.308339827
4616670.635175228
3308175.358948009
70969701.26484714
20734791.27902294
11194249.23401417
4923919.264491089
3329493.288177663
83381124.47858521
33110807.91411183
11670478.32874794
4216170.727568611
3456736.425069829
2545884.156007916
72896542.48831324
23470209.43981397
13122402.0046168
8396925.169141164
3949177.172352293
2605796.311494628
82290538.15053052
29136230.00854576
19435589.71199423
10022019.50488715
3427147.801140845
2741936.364548379
2035633.829646251
78927216.92719857
28265962.86976954
15786784.74310272
10183347.46025387
6843079.428942938
3349857.068732367
2099634.121272814
78241474.33296226
25648642.85695989
16438904.87192048
14356647.37357601
9001774.903135773
2921866.576820422
2275336.497979559
1679817.728507755
79957509.28211866
35679037.71542697
20416437.830211
12831581.66529245
8634994.927297227
5920307.478063179
2942364.523585874
1729322.391402444
77907998.42007597
24774009.68453864
15236593.46437259
11458916.93208351
11304081.972002
8181942.903879585
2605527.830966885
1966449.728535158
1425881.852972717
76055695.47358567
42511800.17742811
26310859.27004864
17471014.84554819
11504915.25576687
7828937.521608851
5416652.697940196
2653798.164152927
1458672.693338779
81634008.52663291
23933967.45180672
14858450.30760032
10790626.02728048
8464255.287562381
9226613.887719536
7539918.914418307
2409507.553702275
1757708.641761168
1240628.133743701
67420407.2370663
45780733.45172497
28935498.14873299
23095693.11877735
16265307.95019082
10911031.57321476
7503506.51525519
5154378.167798671
2461725.073208795
1262983.002485026
80194752.71896419
24106256.78343143
14447809.03915226
10585414.34487386
8167984.968204093
6542574.52261466
7656931.071067496
7015682.53597594
2310329.831662858
1614112.468736482
1103687.187005821
60867809.08887551
40845814.79949271
26802532.11880453
24887200.65009416
21556979.85899498
15815579.45713815
10902034.35743458
7549212.482447075
5145658.510595272
2355359.974605029
1122112.647164037
76901112.2144303
23919627.51587541
14436934.16367976
10397552.53054277
8107922.515249765
6456423.38118067
5193980.428686792
6410931.981021547
6516574.258059704
2287858.432803654
1520065.235613975
1007610.53189894
55869833.80087103
33535624.09290565
21642732.36693716
21213791.06776007
22293491.68956573
20577210.6272008
15948866.98148326
11270910.64908454
7945311.168972379
5341862.015534859
2342937.830256517
1031771.474991947
78268880.60295491
23526750.82599236
14342917.02223281
10399618.75094979
8026410.743095804
6477825.202044185
5226387.394572977
4208344.662740822
5425436.607560636
6021165.571852909
2331765.945386129
1466456.903991771
941613.0781685673
54933601.37202825
27014391.29030466
17805671.15635548
15943760.62098595
16956253.04335021
19682813.54990833
19572181.16596337
16217780.72077198
12097703.58072063
8653967.341971576
5824965.326962981
2431817.697427928
979849.3573439949
76879478.79486522
23481651.89663559
14072129.10613356
10332256.04585728
8001463.450961632
6430666.218790822
5285201.38143124
4321941.685366442
3455853.653051314
4596725.391970738
5561422.002278316
2396658.245220992
1442492.424265169
902894.0419974778
55851869.61462379
22763312.48986552
14889999.58602442
13030161.32693117
11890525.37438647
13618167.07754151
16852504.73814436
18207425.71703088
16271512.14136403
12800381.37611501
9690356.081026541
6545264.286861547
2676559.295176194
966689.517894245
73566769.04984662
23026972.15166073
14007171.3993723
10148581.13273525
7938294.808999266
6409674.388460658
5265990.142297312
4381294.859002505
3611665.811050572
2873915.612040325
3884875.323026437
5075069.957475256
2477812.192359424
1436474.320485878
887972.3494054533
51717368.2099667
20950056.77897045
12799542.04237307
11054134.41397383
9630496.493774492
9494296.029439028
10383805.27199071
13692731.37729123
16222841.36807701
15700256.34562281
13252214.77192237
10689223.86825409
7474205.271356357
3147274.804710647
1008253.444646112
75135447.26240984
22026548.5701679
13932612.0732131
10124397.64925324
7828660.031586987
6365379.095536358
5256259.007605352
4387795.767988498
3678129.576641147
3046389.764753451
2407851.716856446
3272563.225480574
4606835.910170048
2559175.653598375
1452972.996474428
894698.5029860683
54411136.5007415
17091102.37285183
11625658.33885217
9265080.291010046
8260469.745334923
7753973.381431881
7227616.079425761
7572627.377581775
10291660.72081855
13392627.44907965
14207969.59173508
12994284.86640583
11137388.08197734
8347089.984047966
3943703.928516546
1157954.566865242
73403785.69494541
21873084.82338765
13546444.08268346
10047853.47022983
7780263.57664718
6292576.24594403
5229913.844356178
4391016.757535326
3694528.344246413
3112544.680532076
2583340.998301736
2034237.555478217
2740401.571156292
4145800.989791445
2595933.8265526
1479237.990367722
920442.9755824545
57876240.54763556
16201253.73130686
10061010.92864663
8258751.360580059
6905343.260010641
6645904.671509458
6008853.645363767
5594455.921231922
5374162.344387468
6828786.44335034
9922089.707924604
11803067.03178266
11874974.5372861
10803892.17993702
8782153.214149907
4917038.610452235
1539765.393744596
72426323.56889628
21768552.1152073
13310534.60180264
9804730.964842273
7730684.005727214
6240638.041661139
5183145.297751606
4373781.173804213
3705029.134744724
3133062.712054285
2643900.465432192
2200399.767292111
1730355.162747864
2279472.032694183
3696372.209991449
2587147.376465173
1504883.236963305
955447.2394104014
57946108.72496475
18091249.82521589
10031644.91824351
7244317.23423355
6078285.045701189
5471337.181516138
5180286.897801581
4865372.808726393
4333392.419951403
3750402.405284874
4176112.476713982
6446121.943768808
8738607.463426501
9666856.974254355
9496397.102053614
8438884.448586542
5652484.912075371
2091801.17095814
71144373.17083974
20637950.86091901
13077894.81872552
9696337.569617864
7576826.700231172
6214506.552692438
5140231.826687219
4340278.136918434
3692600.104382322
3145212.867612812
2669322.262983348
2254690.124797862
1877731.590236278
1481409.419900318
1876670.95590487
3235623.701848808
2522349.927462497
1516679.136869435
1011250.205658557
55439883.30821523
18136881.77435272
10812767.76560255
7360820.605103821
5501688.926023993
4779023.266044248
4280597.586873838
4237337.242642583
3799325.734441207
3334022.054405061
2739766.546729128
2599172.616900858
3739385.001862295
5488446.208932698
6704248.619720881
7169441.447254471
7332215.785092254
5796182.522203661
2649508.295623521
68802332.09295425
20716065.81247381
12605951.40530808
9473621.036244869
7469910.441885265
6104478.475513761
5104003.347229283
4306368.137766031
3669792.756289022
3142705.926951319
2681553.930863655
2282899.879161777
1925759.014296741
1604009.728190732
1274492.706363217
1533627.240008828
2780394.248460001
2391745.258009114
1502408.546102442
1104580.918203094
52191585.21597661
17732721.72984841
10852169.87643546
7868794.359804221
5718346.141059913
4422429.71521531
3776379.72224836
3478655.991742735
3295816.887646973
2963625.211244727
2552335.533946967
2106543.523055121
1785694.757326681
2086676.195262932
2931990.739210016
3763453.055053715
4452216.574730223
5498346.430388915
5399366.083562152
3113990.885966339
67615587.28770374
19873138.15845363
12417509.04377137
9137491.056369046
7340524.636663468
6005863.879223701
5027046.118250168
4275516.106428482
3647654.746268454
3125734.680605242
2684024.735437066
2296866.810816755
1956142.224159977
1645606.522471181
1369412.662790173
1100653.831723726
1267150.585598678
2345148.412416514
2241652.504186759
1468061.101460748
1277302.610285753
58238526.42248872
16971664.06430557
10699972.91991835
7875724.611502541
6066094.360760266
4647011.76837641
3601605.725844814
3100231.446208166
2777900.380019509
2618282.481386452
2268244.82611449
1969600.142580537
1647597.724697898
1356737.977743673
1313790.854854537
1503903.934168304
1773658.134722211
2113207.710380057
3437874.052430454
4544632.209264167
3325505.954033658
63540989.564123
18556209.09732103
11872610.60272268
8928405.237237958
7106178.42881285
5924210.982413362
4966518.636823873
4219747.991455396
3622832.705605271
3109564.446912847
2673455.322636045
2299442.566158514
1970467.979088187
1674775.844041537
1405366.19834259
1170887.499044766
952737.8604122981
1058715.237682401
1948802.201278359
2043996.044603862
1407473.946941441
1533285.470592445
54901498.70976526
12659566.08490468
10336997.70504426
7775840.833580925
6074448.46297096
4910263.158139543
3830592.750621066
3015093.869037403
2536609.10500856
2289487.120122278
2035265.602115364
1781560.698586597
1519163.171620685
1298374.179774517
1093726.471433338
970850.1312818913
929321.4617881972
879977.0711698564
927533.4948390462
1877400.56709966
3460402.30033017
3172546.337000405
59236885.49214212
17699299.54444092
11101687.92639121
8517020.823300885
6880012.352710488
5754588.699628145
4897504.726805226
4169989.011846321
3580884.613961746
3090957.101900132
2661199.80948892
2293223.343767814
1974169.222659369
1690745.500535498
1431768.261931889
1201577.280060008
1002475.420246476
825944.1135542555
892855.7041650341
1599982.394883565
1830265.554772739
1322609.664401697
1670951.579825634
61335698.94980592
16605009.85695373
8850462.32495217
7539025.234230437
6026933.718554235
4922395.493523717
4038412.744754447
3228503.189670453
2544091.150585353
2132931.472084516
1850513.44646303
1651545.241357446
1416934.04403575
1204883.884508676
1028939.676598716
895016.0344665321
788347.6361253023
719374.0525711093
631805.7364245353
591544.0515841265
936941.3061162703
2445445.129901607
2871477.554064547
57221762.35429324
17323797.97328093
10683021.38934461
7961532.474670815
6535621.972857324
5525216.175087563
4760907.231510403
4112199.922362769
3542500.181768661
3060533.907361074
2647425.367516174
2286573.496039757
1971363.828745581
1696323.836633351
1447885.993459044
1225206.928024509
1028337.145848469
860045.5908178176
718018.9501458388
759519.3344655543
1302455.980863796
1618721.411678714
1224086.950463941
1739201.378805091
53513078.31160878
12469340.15634643
10198273.23381842
6801292.791609235
5859434.45650391
4882461.399992667
4061510.862313927
3397815.80325126
2746216.003098701
2174030.868835615
1796036.07612037
1546029.301382881
1351763.094172608
1156698.817600501
977621.7844661175
833120.6624737303
728291.1679294372
650850.977225492
595904.0944469903
528529.3442564229
468523.935671511
560935.0585037193
1651480.167656044
2459123.356051543
57381751.54030301
16757564.0358291
10480288.92478077
7658181.299644404
6100497.543953111
5217015.221267333
4540386.079977634
3999487.041630142
3494877.962813718
3030800.821728774
2627096.821990903
2277049.557383629
1968756.641769483
1695668.626807104
1456600.509915018
1239536.172779538
1049259.378163784
881820.2539485778
741093.8724495284
627388.761789229
652442.8211752317
1057438.335145848
1419205.580575615
1117945.488632041
1725940.456153429
54530526.46350444
17063219.67657386
8738281.554154189
7483802.275332993
5452706.554134821
4752060.57528398
4026751.598469091
3421499.09830025
2879672.89820044
2356498.436658503
1863719.057385493
1530827.40797851
1295754.653298505
1120697.908858654
954450.6518779026
808918.8256305809
688321.3054632434
599101.4116983127
534883.2615681639
490430.4021170015
446200.0009203191
392345.7132345861
417696.7484911641
1080467.39759428
2021641.272169363
57314672.23895764
16237694.1405681
10035261.64897369
7510905.579123812
5867254.141662455
4869284.860019628
4265486.223688281
3798097.486457538
3397604.647807544
2993397.834727947
2607210.161712516
2262768.452124901
1963680.459047457
1694730.825508939
1458910.082923926
1249216.771207708
1063084.178753273
900079.940406069
759092.8051066595
642771.5204747283
552162.420507141
567091.484023123
860028.0895537497
1237052.59452717
1013293.499053824
1624136.006179482
52379399.01336969
17116144.77793547
10295804.90364642
6721206.451897285
5789749.055035917
4508027.023237162
3936137.620326904
3396047.831155427
2898383.889788962
2469126.005644204
2026710.865918523
1609968.465794873
1306183.722936535
1097589.862612864
935605.8823153944
795614.4239454886
676461.2605750754
577664.9593211599
501390.7532102317
444052.5169657327
402257.7886128572
369084.1429415921
329401.328106365
333353.2981430532
686357.6153862316
1581628.01236635
56623583.82758104
15380021.11287989
9617352.674917517
7135986.659835738
5761145.351058391
4685909.370950884
3986592.560931614
3551748.273100882
3213590.378650667
2906348.438794741
2576756.627466262
2249943.579235893
1953801.074093273
1692328.430356269
1460095.907599583
1254286.906535332
1072762.808982255
912856.8434560356
774654.6721435754
657200.6295872733
562086.110817152
490939.6680043523
499898.6966352885
706603.8290374171
1075771.756079204
916533.3925355833
1500454.67455037
50630964.33198144
16638320.82356928
10287587.93483601
7502788.317610414
5386755.514291805
4699538.043557572
3795657.627121969
3327643.507336625
2883733.578569905
2486899.053657399
2120699.315340476
1753295.365434644
1392042.422280991
1124262.469555655
931992.7058244378
788757.6653907554
669136.0877250225
570691.8163480832
488941.9799179892
424456.4174194869
374248.550066421
335091.9451657489
305051.7764555596
276344.0642336997
272293.7927761349
435434.6925315615
1204363.858910603
50591438.93336062
14358608.72582252
8955376.395843465
6814063.772311097
5446621.294115505
4587929.225732563
3840839.379939093
3320271.474864536
2992992.583004963
2737090.752045584
2496098.553085052
2224743.594970052
1944074.257156431
1687818.082719889
1459679.917428616
1257475.109968184
1078931.748725006
921888.7359741903
786043.1966832106
670088.3128928924
573439.5259390214
497192.2736245635
442457.6333304145
448773.0368329981
591282.2824087697
930198.823622743
823386.6246018067
1353191.476116124
50063817.9865702
16170437.50783065
10052949.86449121
7452513.852320266
5802647.406509448
4462639.60958959
3891453.505385929
3240091.196670519
2837627.529867194
2473921.481219203
2138301.115009473
1832355.269835392
1516508.607384421
1207676.704316697
967340.8499970241
797456.4669873288
669528.1874290232
568157.2071107468
485092.7067161142
416699.8298035627
361603.8588756958
317635.048613128
281760.3465705972
252962.9169990618
230938.1695512733
224886.2499674965
309430.0205780573
906544.3152551282
47574216.92745698
13144967.20508196
8275726.55646383
6319713.936275003
5134312.453615789
4300261.652401648
3757222.954807983
3199770.276518089
2793218.642006208
2537145.020738326
2338547.784157537
2147937.903348992
1922318.959827921
1681658.264723612
1458278.212429611
1258900.764891406
1083119.522037058
928346.2093853455
794397.0503591031
679842.9384498048
584029.6973412369
505883.5322688667
446538.8554334833
405996.4997161556
411778.8965442196
507154.5755326914
804413.8239807088
739290.7879135152
1177789.106641879
49488464.90002656
15970492.47724704
9895407.913920891
7298071.609279791
5743571.415727104
4680981.404601122
3754111.938543111
3286804.435039643
2781206.676812308
2439830.53097836
2130947.934098862
1847743.325721687
1583754.738245782
1315564.593243117
1046832.988411271
836731.3900010083
684172.538593456
572250.035562059
485471.8582510641
414952.1260586391
356793.0762334146
308788.2086778
269267.2785426883
236260.3615573998
209638.0615656034
191833.8609922137
186196.4012946469
237989.4057829924
680602.8634444713
53524265.80543573
12877520.43996667
7571602.117876029
5806922.988535627
4729395.116508201
4023040.319372721
3496873.68865829
3123744.65061454
2695410.788456944
2369711.220722327
2158518.007785619
2004286.713766759
1851441.194996166
1662299.743210266
1454577.039638977
1259412.857290505
1085692.166120108
933046.6062211315
800624.7411150063
687295.1569749351
592158.9946603053
514414.6776506858
453182.7332266893
409013.3067886729
381132.3656013445
387567.6398394078
453645.1597698593
702890.4014798965
662595.5626811703
1109295.083641896
48920405.63120267
15781554.88183665
9860560.5650911
7209527.221568962
5621479.289321665
4641312.18940157
3871037.334297243
3201744.030282512
2796715.954714081
2405028.323840025
2107851.744407884
1844800.391853282
1598641.313101669
1373453.574633847
1139882.343741623
908565.373737134
723514.0987116193
589395.4574899746
490990.1384933545
416779.2966811322
356095.6643313145
305899.6512214296
263626.7713571549
227730.5854357481
197590.5652590239
173284.8618175006
158814.7627817927
154512.2404153847
190447.8036816883
506286.7272963127
68984703.09765027
14732303.32874211
7440944.597207936
5310076.618904451
4328806.020555644
3684128.024499383
3250597.392747832
2896502.148945156
2625036.62806424
2290595.722068072
2020975.363584755
1845907.040285756
1721388.738395384
1596136.345032146
1437475.700276566
1256981.532863988
1087548.28606092
936567.2346709012
805431.677118093
693112.1416419736
598598.9949196731
521145.7004370047
459910.4350469577
414135.5995647116
384149.0374720648
368221.3019807515
376982.1451061718
424766.192134519
625277.6826426004
614563.1204464353
956944.0650637627
727870.3305283886
48357240.48734026
15594390.09520147
9686545.771276483
7163523.417572276
5560005.245308983
4561524.504147164
3836725.664070671
3262275.410486453
2746849.014836618
2406313.517053747
2087057.655363503
1829691.648904502
1599057.52033856
1388230.952046528
1190898.207111191
988085.7152171363
787271.8428703423
626188.9549406243
508141.569143711
422465.0797947326
358428.5330434986
305903.6681352339
261889.9606616371
224646.0768637026
192484.9591110853
165116.2869715777
142998.7897791509
130402.5027336227
128604.1332736786
148305.7922288798
231407.816371532
81108110.90566967
19122416.09872327
8474364.626095165
5201229.787219598
3952098.981474628
3374280.626994316
2958111.067107766
2679332.216213358
2419891.627655811
2227410.515347423
1958058.779746275
1731173.946569783
1582860.232095037
1479706.186009206
1376555.965289177
1241491.618867192
1086096.164886198
939048.237110608
809305.8187141317
697613.1042061299
603735.9987463284
526635.6611997181
465435.464871196
419467.2431035767
388425.800357056
371648.9803641496
366541.4372718988
377775.2686525719
414501.4234232907
551602.7637973226
620370.3691238271
948553.8107529948
564098.4672394969
49463230.86097053
15407097.99016411
9519294.230989709
7034721.817603279
5512235.674042252
4504206.337414819
3777705.204900974
3231646.495768677
2773241.599566902
2375904.774250342
2081180.544600503
1816732.141816028
1591516.299664899
1390997.667185435
1206008.003101745
1032626.902815237
854989.7970005622
681235.2406096861
540921.5102776294
438164.9324187295
363600.5184014043
308063.3457264031
262310.777961162
223536.395460974
190724.8125598689
162338.4461002775
138010.90010409
117674.5670400141
106678.8191513355
110621.2041713746
121965.212047394
160633.0271595522
83571533.09312573
23663942.93076509
11248544.36847035
5938146.349512462
3907565.554091265
3090522.068190635
2708376.781230105
2427366.686708889
2233759.540844838
2043066.138538856
1900782.639940726
1679698.713796819
1489017.411701305
1360443.088504079
1272727.511185605
1186948.260716426
1072076.015013942
938533.6716831448
811884.6390822969
701396.6945957446
607862.1157454777
531078.7515963467
470021.9780833272
423943.1196009088
392688.9003938651
376051.6426482381
370966.0004739639
372807.8244377359
380648.5719044209
402690.5939494847
584739.6122120844
428545.593563011
589515.5858491794
777040.9432257803
829699.6345210463
231519.8775002256
641658.5785500121
49035893.25986548
15331710.52569727
9404790.051604681
6911099.484494573
5427826.645436279
4459119.331895673
3730243.575241157
3184866.127901813
2745031.86449453
2383056.283289792
2061068.426076039
1808256.524639551
1583913.363689941
1387740.037408658
1211360.170990791
1047538.125834322
892859.3013275516
738515.2747876453
587465.7660891712
466251.4458138648
376972.9441206523
312419.4567220603
263970.9662509541
224008.5980026658
189991.9785973398
161145.5871311068
136466.9859507574
115011.551781485
97852.46989557662
84201.37107429058
85275.84829086869
97849.18266471235
118419.7442552761
83267646.8131939
25278541.64346161
14303885.35441143
8122823.660722617
4553352.311767016
3071838.961323049
2496661.926467373
2220095.106752709
2017113.480849142
1878407.479298695
1738915.261329029
1628105.745404581
1447675.102478588
1284625.046949244
1172256.543200403
1096492.7452244
1023699.344554045
925986.1205145536
811716.5580595399
703995.3944268294
611412.5934136464
534779.1278587466
473878.0504368467
427775.10551104
396295.2934823292
379817.4854507134
376089.2889277927
378836.0537398197
369798.3204263167
364170.5437049147
391193.9805356033
376474.3907904923
517176.2727873026
389772.1520344756
560157.5588887878
765953.501334144
840088.1201099133
166468.4872177999
417225.4152527213
46276750.42385326
15188385.58249328
9314752.168936202
6855968.317172896
5359973.973496594
4394641.193085891
3696313.231687878
3146835.716633313
2707820.166785554
2356602.599659757
2055622.746330194
1793355.746256961
1574107.515149351
1382173.58377599
1210930.983743975
1053742.883938951
904935.0727646559
770595.5328518361
635083.2727355368
504727.1770328298
400131.4016668715
323203.5330418751
267443.9746198911
225176.7957009508
190357.600863143
160780.0794750218
135680.0997857738
113879.339376874
96173.66431025142
79069.60402895417
76561.62913394901
72056.94793500728
73967.41285379915
96443.40927372483
107094.9292324297
81025197.85761122
25507035.96581263
15492830.67921951
10526501.79132878
6388167.652856456
3634479.768160418
2496535.161387732
2055041.045986327
1845749.557439853
1695092.531932862
1594510.048338509
1489352.125420739
1400635.002277974
1252842.034033493
1112490.873597976
1013115.521025656
946334.5738213171
883951.2509706089
801036.7315408041
704123.3133509922
613973.8458451206
538038.0259843449
477162.4661388352
431105.4274400928
399480.6772768862
382782.2466914984
380030.7816660486
384866.932813819
366719.5002211953
333109.651725457
321831.9942636624
341449.5276427158
346579.2376593578
539992.061262144
417575.3772170838
351019.2354079151
541735.4416369074
828187.1656537444
639461.7050809184
555426.1238344759
122527.0202840232
188976.8383819765
53063267.55776205
14473033.71748217
9151201.22351083
6817133.264937853
5304477.047385691
4339906.277016426
3645667.617628456
3121203.788277856
2678111.863409928
2324954.023358288
2031890.751488574
1780355.251992785
1562475.308139395
1372566.524989999
1205635.220892295
1053973.333901484
910513.378423328
780039.9892450875
660580.5076139393
543843.6668869223
431163.7763652703
341635.9562642988
275662.2230935157
227788.3172753185
191119.6996564191
160938.1420472634
135437.9627348712
113346.5461034588
95130.83506060291
76196.9764019032
70466.94685907921
62463.23824038774
62555.35058192776
62200.27782875623
77967.24722106407
92533.31068590461
79026107.6221966
25079749.27121254
15611210.52172076
11375334.96224713
8311561.079420936
5209552.548809625
3003233.819086121
2072148.696278189
1719816.771683016
1556713.46687729
1439675.354118834
1364352.244606748
1282856.819359104
1211729.276523885
1088220.451880651
966976.295192343
879254.4981366412
819579.4244932618
765712.5795472636
695489.4934368973
614524.9065628442
540512.6929583105
480139.7093313618
434064.8412999704
402351.584129272
385461.3684058799
383001.4001924574
389871.4857166641
371726.7202532361
310196.5112090579
306245.3240295561
298032.7963158038
307139.5767913744
316677.3063198655
319422.1638699122
447640.5297852223
379788.4877770719
303254.8917987976
504872.0006269137
809440.7198964491
604745.3808551022
362977.271198272
111796.2734702922
134393.5994123085
45726192.90561577
10681531.90641982
8809108.054770567
6687856.265489203
5273243.661228898
4288742.271586099
3599735.066976479
3080906.689019504
2656393.927525919
2301487.459796411
2006136.409773923
1760434.092398948
1545603.610043961
1362271.778994683
1197143.310860227
1049432.596935444
910844.997551274
784397.1675770745
668607.9528935391
563684.2348112526
462637.8966936552
366154.2187013822
289789.5069367618
233685.0067333853
192936.144197721
161398.5063024321
135434.6242335432
113031.9873041972
94528.05079022763
75364.48396485385
68043.58374414485
62992.17333352787
58959.66322319639
59310.25402528622
59669.78381644401
57218.73325628033
80681.46188955093
56502.66194932499
89386.81670271882
78067127.2730892
24301972.23699214
15283608.47602675
11461446.23367815
8994203.223844543
6861901.257632979
4398708.057472787
2541331.81721015
1751766.991306554
1463259.608703366
1329156.311585141
1234779.716928226
1176323.758833536
1113068.67631891
1052123.390608735
949157.1191442612
845211.6115957268
767418.4300012542
713737.1541209694
666969.2894572034
608118.8464385187
541507.9404088174
482598.4830583979
436816.9982812054
405013.2031122512
387926.4063121862
385372.2599339585
394027.5946715762
378081.8665495326
314294.5588687095
278329.8156477739
260956.9103203223
259505.4489309942
258288.5397721747
262830.7784221405
244790.5713025418
428137.4421227315
327010.3964232262
241699.7410001157
476041.5660383049
519396.8474530139
745698.9949095565
502263.4751132224
140330.7752104784
97671.24927702341
42803112.39233966
14216832.50303621
7484682.109048991
6445104.149322649
5194340.520214687
4256376.92770341
3559071.529721878
3041134.158447864
2624436.397425317
2282289.282615252
1988217.27568626
1738909.984936834
1528004.059526695
1344562.207432813
1188020.751923467
1042200.684724674
907113.8814987945
784656.8603858587
672109.7927161008
570408.2026149342
478654.9143879299
391421.8699134185
308816.9824215363
244157.1755876323
196924.579296428
162541.3268857642
135640.0871310103
112870.716895395
94042.53806116129
72646.53748575569
70042.2856947417
68003.39505044237
60619.83094761625
59184.29815779469
54790.81578186001
55052.99616441803
56443.27736680063
52962.44316949425
65885.96890202884
49343.11003311278
79958.62071054371
75139192.06758207
22513892.95595691
14757334.1395103
11199269.99052313
9038180.492103303
7401666.488370401
5807438.279468835
3801801.579217969
2197763.910028352
1507201.263642808
1261246.997588153
1148178.625824119
1069593.58358122
1022438.987217914
971439.1609793195
918572.5324055214
832880.2755705597
743612.0867076282
674892.9144213665
626822.1407469251
586250.7660103389
537449.3525523616
484162.7795473917
439337.4967272247
407638.7627163326
390268.800991921
387628.0388394168
397529.1036640972
384591.4672200623
309295.7898373195
283727.7105812996
289108.217963662
243525.4314315542
230318.8776903787
236799.2119717277
225171.500669724
230711.9122959548
214350.0478534195
335984.5375822916
287264.5870949243
203393.448365953
429830.6597588739
476790.9896059989
737127.5257879379
380903.5428664692
117386.6792541906
90989.94323514128
43560051.86860051
13969299.38088192
8750544.056363771
5772233.275621055
5019166.319268476
4196965.658403218
3523872.274949671
3003565.963854614
2592875.310976025
2254402.447052142
1971445.405804008
1723455.534906183
1511157.668667411
1329727.711785659
1172164.645265593
1033574.324673014
901309.7913130675
781642.4131244798
672368.7759643571
573484.3459335979
484044.9001739225
404141.2073928706
328907.263688124
258600.8853900564
204434.8743915707
165110.9121036901
136224.2379830424
112808.871938109
93437.68635451875
72888.51505130756
65907.90817427282
61684.28535463316
61629.44941111535
57894.24391844644
56268.05057809033
53272.71869461816
53193.84199624883
54211.19773227139
50514.92121177036
45774.37108952252
69840.36074989256
46321.85678355801
81344.82143988497
73897143.8941229
21957206.14164149
13930090.31082343
10836226.80947364
8794060.909152182
7406955.043137579
6238333.630572319
5030686.679103636
3352719.711645422
1936018.919214653
1315308.017472898
1102165.187347452
1003481.444445751
935872.6428439963
895910.5470218332
854040.4000810175
807618.4652668333
736215.0392555684
659769.182953538
599755.0393085402
557017.1389369874
522094.1910441748
482549.1219104737
441533.4417351888
410325.7790428892
392662.3464382218
389872.5117853665
400632.085894172
390472.0266827123
318663.6222914205
291310.6683953309
245609.5414914998
252536.893372862
214559.8880348296
200543.1154088091
207512.367508344
194783.0660410033
192761.4911504577
178314.9214820053
332518.9584330441
221908.9588533614
161176.943117048
193084.8120678029
443488.3425188257
455614.121536051
624390.0470677782
541180.9917433911
171695.5827533492
103717.0779400351
94058.78931160977
42933046.54002305
14036673.05213611
8643574.621494252
6406399.868864922
4636320.752352953
4074107.166123206
3468961.560642901
2970025.339076949
2559779.991930676
2228011.363170245
1946616.267548465
1709993.05272879
1497826.67560719
1316471.151087084
1159536.365983479
1021721.495653999
894122.341724908
776910.1995276429
670299.7981640771
573775.4070727675
486758.5895417471
408566.8619213763
339034.0508178732
274226.5243398524
215121.1536436611
170425.6668301091
137686.7459746988
112950.6045768
92836.83891091448
69546.20029487534
64559.80626216347
60011.84679351595
57178.60215742961
55184.20432350544
53397.42163614735
49833.68898138406
50123.56239542979
52024.5658386966