/*--------------------------------*- C++ -*----------------------------------*\
| =========                 |                                                 |
| \\      /  F ield         | OpenFOAM: The Open Source CFD Toolbox           |
|  \\    /   O peration     | Version:  v1912                                 |
|   \\  /    A nd           | Website:  www.openfoam.com                      |
|    \\/     M anipulation  |                                                 |
\*---------------------------------------------------------------------------*/
FoamFile
{
    version     2.0;
    format      ascii;
    class       volScalarField;
    location    "1000";
    object      p;
}
// * * * * * * * * * * * * * * * * * * * * * * * * * * * * * * * * * * * * * //

dimensions      [1 -1 -2 0 0 0 0];


internalField   nonuniform List<scalar> 
18230
(
34727.49876884434
32689.89736920981
34477.50794658175
34741.87076059707
32298.25844065485
32696.13543140044
32495.00205490672
34464.62455520865
34720.53050132566
32838.29755539563
32302.65843106824
32711.97622233806
29843.62993717466
32510.26163887691
34469.06358819109
34711.47667464924
31741.06029061175
32844.65032890156
32329.23208744116
32702.55390095544
25422.9331009262
29871.3180375298
32513.88394004776
34456.99237589121
34701.13576291076
30750.27050028537
31752.65855540949
32827.38295586882
32334.77172186355
32711.81864114639
29581.46512510531
25539.70382971743
29891.16818395033
32529.29081716088
34451.98273673177
34686.47342367201
29609.10759531495
30768.19925063894
31754.0638387071
32843.69323604797
32351.32131772535
32720.20519448326
31900.18090064213
29586.67574384075
25587.05840618351
29899.73256658632
32522.57166669688
34440.87646900532
34672.56649061959
28123.10698528498
29628.01070736882
30760.46358504728
31723.03446615217
32818.47624705038
32368.24071791604
32730.06378826017
33293.2026382507
31985.25079684607
29667.79550981178
25629.7611743617
29918.36327896707
32548.34637177463
34432.01831418546
34654.90807816834
26857.17838538061
28145.59996855869
29630.92689670465
30769.73115459847
31769.4074025088
32834.81878074812
32375.81981852716
32739.60252794778
34464.27269139656
33293.58562222395
31895.37071356161
29710.46351084322
25708.37277571709
29955.1705219827
32575.30761967136
34418.9678925652
34638.14268640617
26439.19324132778
26880.23135268908
28145.33341104854
29628.19458546997
30772.7852167102
31718.56001357592
32832.4056346158
32400.83301389938
32749.54471120552
35352.71143005624
34465.03530531652
33297.74636474967
31921.65641525872
29725.88506540281
25802.61217967705
30011.32931904093
32593.85259641797
34409.72256760526
34619.47208385915
27004.63463608762
26455.97843974116
26872.70532192342
28144.53971901689
29632.62409747791
30774.11012429262
31739.25159714149
32857.25880325011
32423.78861685512
32767.58722360262
36093.48316032688
35349.63761582891
34463.51629505296
33290.82525732998
31910.73280289095
29776.53735932743
25912.2352514899
30058.01026761636
32615.1179623145
34395.65506631824
34600.56397483399
27947.70622029932
26956.18178229197
26451.34753787375
26881.62329592891
28145.38938947883
29637.53687542348
30776.12797881475
31759.0780413125
32869.75960424031
32459.92991281074
32775.81654001209
36724.13457940242
36091.24907243699
35351.15037787458
34461.62278436159
33294.12355159901
31915.42654292944
29802.54870880502
26060.91276596957
30129.48854505164
32634.24695029038
34416.0679603843
34580.43613212451
29723.27454794565
27696.21449756827
27026.09323455166
26450.72681971889
26879.54628468492
28147.41872110403
29636.60497602397
30783.68942275042
31775.01370491904
32884.95219306018
32496.34942563913
32807.4278542276
37279.89920453342
36719.1165066421
36090.47887937119
35348.61050613278
34460.9138879031
33294.39423828106
31927.64305117546
29848.32041994646
26216.13393815162
30213.16676345019
32647.69492783299
34381.32131184521
34576.83921238768
34025.36003581329
29703.52825331505
28001.03131529915
26986.46784107349
26444.31545500488
26878.76480453973
28145.79637154323
29644.7481860532
30782.93024308103
31786.98488705792
32897.11680086458
32519.97700460139
32825.26633799911
37820.23528676976
37276.54758475646
36723.88552721522
36090.14546055251
35351.51973599123
34459.00400743158
33291.72518453717
31935.37729108389
29912.46307618404
26395.88015034779
30313.94816268632
32670.95819260129
34362.60588807192
34564.20751576141
40245.72681249518
34261.25521285446
29749.80004787003
27875.86448747184
27025.81434599918
26406.37333475177
26882.94535093709
28146.38500730033
29641.14551510977
30789.33213049329
31796.24520738558
32924.3716607561
32532.42633856184
32841.27362482905
38395.73218770297
37816.79814892839
37274.71300739254
36719.31536937666
36088.14894535845
35347.04674556446
34459.97929048312
33293.33498915875
31940.69755114845
29972.51587973234
26609.57806403696
30445.0154666974
32750.53112225355
34377.31365404152
34547.51002784714
48842.62988928654
40392.67086506936
33973.62712334767
29797.86919879209
27987.40636963466
27021.86097428206
26446.68534706443
26875.87441671799
28141.32198416035
29650.49566251188
30794.95857396744
31814.53523461443
32954.44768299889
32540.30833746256
32869.02673597799
39125.30766047351
38393.83592413551
37815.38556992467
37274.54286413138
36720.41746500586
36086.1093768372
35345.59121211615
34453.20784784589
33292.97662958587
31954.15702144719
30044.50876857019
26846.14116370083
30508.31003107082
32768.89926658373
34400.01823360636
34523.04201669356
54103.63496278523
48885.01168012038
40243.42026206834
34156.10128829832
29725.76490569219
27958.20020582298
27031.8945664017
26472.38876440373
26876.02192929281
28139.41086210679
29650.15563267652
30800.96306020227
31835.34004442621
32995.08321811556
32550.4673499891
32910.28324578569
39721.05756944555
39117.65952533245
38392.64313784741
37819.38805895486
37276.1347183922
36719.1464617564
36087.05262328287
35344.87143329292
34456.30088069285
33292.3082744444
31970.00116294737
30129.73028169883
27114.65701407961
30592.61892998356
32810.26979521454
34405.51582650331
34534.40895368159
56787.36341260855
54111.8741652328
48831.67005060594
40269.93003859325
34042.32075767355
29820.54416398862
27982.32070901238
27037.21654891469
26470.99898131979
26867.58754911644
28119.7136642187
29647.21829547832
30817.9220943483
31875.55563270141
33057.90203857863
32542.78964871191
32966.91705988786
39892.87579101824
39717.44566601974
39124.39099890769
38389.56865004779
37812.82764898483
37273.43471808668
36716.28464606359
36083.27627808325
35341.77933808119
34452.73407592078
33294.57025843771
31984.25505239137
30222.81816961177
27415.72104054935
30741.18484966086
32875.79493013133
34425.00307611079
34569.11026041049
58807.03076434746
56784.8858527113
54104.10446966186
48855.02207686855
40273.4611805945
34129.32618987573
29738.74879452035
27990.04178796958
27045.75651030698
26482.49377395697
26843.14564581408
28090.75623470781
29634.78594409948
30833.8242731918
31931.97814227274
33154.29638526722
32622.09549908961
33036.38990489288
40381.08566598355
39891.14148811803
39720.31756731151
39119.56110517883
38393.1639772835
37815.21049528156
37274.11571564376
36716.23827535705
36083.82208943777
35338.85059988428
34451.55447084873
33297.30776189399
32009.5776722711
30328.12318221409
27742.256124303
30953.78683214945
32991.41586229999
34469.01920931185
34651.61824491648
60599.64085243992
58807.50470211515
56787.53538754403
54102.88675873704
48844.01906064886
40254.42610089346
34035.31240090476
29795.19195066547
27998.46286576704
27057.34779094052
26486.94941300544
26818.61226915916
28096.46252149188
29600.94082905655
30827.0194443505
31995.28854805375
33376.3393231553
32828.6837827239
33129.92969264097
40981.47117331145
40379.84019182069
39890.27326310691
39719.43528954469
39122.59199702842
38391.18633286745
37814.7065375967
37271.650644004
36712.09389363404
36078.92982084323
35338.53620035318
34448.05118114159
33301.89677795321
32033.56043671341
30446.69840698068
28115.33584458136
31214.15522706634
33201.59499858564
34603.56814806293
34834.43156110996
62177.63801398662
60601.59290286118
58806.94926309276
56786.7137987046
54093.96928948373
48853.32319746234
40313.82172705261
34098.94205780241
29762.46562946816
28014.47326877582
27070.17767152469
26500.08239190173
26807.67461748347
28004.3631923118
29548.84050440376
30778.09421823996
32092.90857849184
33595.62627484719
33243.20759655985
33244.98260617288
41634.16903160691
40979.70859331376
40379.89214152319
39891.21676419739
39716.31838151729
39119.39386054983
38387.75398339129
37812.92896563216
37271.27905785812
36712.1574164902
36076.87098989709
35334.20263751259
34449.61941213211
33309.78139707133
32069.69678084098
30575.37531040655
28529.20102571418
31523.87696579226
33519.37235675054
34837.22164734422
35092.79524114804
63679.58656566781
62176.56206868058
60599.22447287474
58811.4253456121
56791.03376152452
54108.69498391721
48842.84156779042
40269.62891148566
34085.73393921431
29790.2506546483
28028.07802763776
27087.33435591431
26512.98868987647
26805.94572463293
27884.25021111819
29449.28556654124
30702.56063424586
32072.24982126475
33867.59935513898
33730.91718682454
33666.18787921172
41537.70248909712
41630.53511306523
40979.97064134137
40379.95478087301
39892.17581149264
39717.99398835226
39120.22964828905
38388.86881493265
37811.38242035991
37269.45646257407
36709.00403194191
36074.30329754416
35332.39226228392
34447.5777332355
33321.43976671863
32111.10050271001
30723.24095259425
28983.67206229861
31899.99884079569
33960.7561399047
35188.36445702554
35452.96729543601
65049.6730070521
63687.04728426313
62177.92739797085
60595.92928468069
58802.94328620614
56782.01074708476
54101.45086701663
48862.62585223122
40299.08779578317
34090.02961361511
29802.53707571128
28047.98353567181
27106.39125854609
26531.75668319143
26793.8005295217
27804.96457668488
29344.78239335197
30612.82630664097
31855.88843679034
33975.2981136545
34207.39779948976
34312.02734200028
40875.25830522223
41532.98176468269
41631.6422014023
40978.87000575736
40378.33149324122
39891.23162610924
39718.0444736287
39120.93751032415
38387.46144105695
37809.51836073339
37266.87245253994
36705.91598133444
36069.98236024263
35328.35703188753
34449.94325523006
33337.76384734733
32164.6115622026
30890.41534400405
29474.1991531551
32340.81620263432
34533.79882253935
35609.77426975764
35961.67840391504
66323.35319319721
65042.71174238552
63676.4787549995
62178.17377863294
60599.83037495418
58809.90654898688
56781.43804548193
54101.89091130125
48839.58530423589
40302.79431687161
34114.35903485266
29827.61790291106
28069.18666354009
27129.64185890924
26553.92552333402
26767.97095464341
27701.91448009256
29214.32817559972
30497.18391983143
31677.20851733195
33897.10469336624
34677.03876572173
35173.05050037461
40205.73609705763
40878.19644260532
41536.48972055392
41631.18383417671
40981.46541593694
40380.80010885363
39890.55730014989
39715.96825235623
39117.80457279566
38387.19850811828
37808.56951854693
37265.31550310188
36702.86620996379
36067.18853038029
35325.66089391585
34451.87677298174
33360.79894751182
32228.98218375765
31075.39036988449
29999.15939178961
32861.17991288908
35215.5810836534
36116.67868171859
36677.02734788406
67535.84323553207
66318.30861567607
65049.96317019558
63678.93012030052
62180.96981634937
60599.19394620931
58805.83295745475
56785.22062984627
54101.15357825762
48867.66688213615
40312.81657573191
34137.8763601242
29853.00310646476
28099.46902901119
27157.40734601572
26577.93445540482
26739.78757182895
27583.18288612245
29043.60062453505
30339.85597027331
31547.97798101622
33704.77691649052
35152.96018641836
36110.58015501341
40190.6793886198
40172.54021191167
40870.79337560366
41534.63175345353
41631.03304279309
40979.66929929865
40381.2237823817
39891.87815605095
39717.1081880507
39117.54750566061
38383.67072770564
37806.39426236742
37262.02944452656
36699.37366366301
36061.94579131161
35323.18497390399
34457.76761518905
33391.00888784706
32309.46175821712
31278.78474648007
30551.57333349006
33458.06029436756
35993.36845833616
36729.73463000059
37597.79128299412
68679.97204104099
67531.29454460154
66329.24116084601
65051.2582741526
63679.75227855671
62177.51498499676
60601.44005853034
58805.99615710331
56788.20175738813
54097.60713368015
48858.48751538056
40325.38819263005
34166.26813856178
29888.38850196557
28133.62666533673
27193.23703886852
26604.75394487644
26714.34755745446
27447.03606213534
28829.37304977002
30132.01240971047
31396.07016867094
33477.32273538545
35681.45209532534
37076.24753862458
40150.99590658263
40186.9384924039
40209.69793493013
40873.22986088139
41534.49797845184
41630.79389253011
40978.45045696025
40379.44241294539
39890.81741440538
39715.48610071959
39116.18086472155
38383.72250773879
37803.64175706198
37260.510763405
36695.08854329012
36058.23518848189
35322.05881287309
34467.69458871065
33432.04996801755
32406.11347019678
31500.08388873059
31129.38674997953
34130.47196971604
36827.36517525883
37426.62083235371
38664.75260692133
69695.3290590222
68660.12085904683
67538.24483738495
66322.31668745096
65050.12648192979
63679.76198385899
62175.63211794145
60596.75193017689
58805.25822944955
56781.54618216189
54100.69882690338
48870.44672612795
40350.98240121504
34194.15496240051
29927.45276137966
28178.03385051987
27235.17227585971
26638.10917140346
26689.87473211806
27302.21719490397
28562.3650179947
29851.75141682634
31185.78069965134
33247.6534569525
35921.73162559614
38015.43957219934
40053.52044514594
40180.05314500481
40190.12144321054
40186.01959229277
40874.56945911149
41533.80709979439
41630.45639050979
40980.1942819233
40380.3611474282
39891.55421295264
39715.30712202153
39114.64332170306
38381.02779698693
37801.03698877688
37255.89255400727
36690.46964274409
36054.08645608737
35322.68522231589
34482.82800119324
33484.53787393007
32522.61341764879
31733.05624981756
31733.03509278867
34859.14889137178
37663.17046251701
38170.78652218032
39560.38039419478
70768.6343233066
69653.67902716955
68682.99665549889
67536.23794199474
66324.55356539581
65046.509157994
63679.56931405827
62178.72508824542
60597.9172754002
58804.85308022454
56786.37707711529
54097.69183663192
48873.27367123536
40380.16578335915
34242.4929856313
29980.59318811656
28231.16011569309
27287.9514962713
26678.81755242642
26666.77115826079
27146.56671677828
28236.89298278983
29496.61363649075
30891.60932705358
33022.92765775976
36160.4794407626
38819.29972427618
38854.08537356571
40048.79818027974
40159.0009674145
40174.57697821127
40207.04678033348
40872.14181263381
41534.00179226502
41630.13930139872
40979.55793465694
40380.83125439892
39891.56505756266
39714.19783663462
39113.54399807131
38378.32423989227
37797.7197124828
37253.18587128574
36685.91255974046
36051.56481870342
35326.00028037975
34505.18792682241
33550.78726257857
32660.7770448915
31977.73304186419
32352.24758151924
35623.26025309238
38463.47297223887
38980.38082912016
40042.16830569386
71672.50093439361
70749.59961593001
69703.97208465233
68682.97221137503
67536.67300384697
66326.63691809752
65051.53794322931
63679.27753454534
62176.42776736116
60601.02172417122
58802.54152912022
56783.71038749093
54103.02682590237
48878.94214365282
40406.95241494266
34287.3510453905
30041.1925843088
28297.21756939183
27352.36868904942
26733.96905047233
26646.6163570844
27008.09625275317
27862.93835575375
29047.60718583213
30487.04566133993
32798.47323803963
36407.86700155727
39805.22729647966
36577.04798578983
38848.43514730046
40048.99242055541
40157.9942548221
40190.46420352552
40202.91651987822
40873.24948025915
41533.0076328232
41629.62193570811
40979.50238256958
40380.9831459133
39892.13027963936
39713.16676832354
39111.69207668155
38375.83594498831
37794.65570565779
37248.81604058318
36681.44064608849
36049.65388010137
35334.29949970621
34537.33790146299
33633.30874385042
32821.30153472202
32237.67513771456
33003.6396224902
36397.94514475481
39186.2101139303
39744.42981856274
41275.56779552308
72631.20034100105
71635.86530152481
70768.6810434529
69689.24221960093
68680.73461764331
67538.20219117941
66322.59455805062
65048.8919954724
63680.12805781994
62174.20430532722
60597.15421880974
58803.60332276353
56780.65790816961
54100.0817721454
48891.48080769678
40445.81017159127
34349.52148834377
30118.40495773976
28377.15240117456
27433.97053868695
26811.07321947582
26648.04187616514
26879.48538660231
27473.41173595467
28503.19700153662
29947.71605917137
32520.93841560876
36671.31084955826
40210.71446891685
33437.17215215223
36583.91459943553
38846.49550440282
40048.41035287497
40154.32759706418
40166.6685276905
40206.0886922702
40872.2077234342
41533.12221535377
41629.0910668661
40979.41773955106
40380.33675846594
39891.571623361
39711.75148519909
39109.33739308821
38372.58282368334
37790.60679556508
37245.28306800152
36677.48931857908
36050.66116566626
35348.9949760074
34581.11768486395
33731.43779511788
32995.86602093191
32477.54753117697
33627.67580075664
37139.02231478696
39818.77058386903
40531.60835258401
40405.3723800668
73476.30833066355
72564.30883912295
71679.22025833832
70770.97557708749
69699.7082549717
68675.7175221175
67534.20147567795
66323.21922175681
65049.00400675732
63678.08597671314
62175.4476955784
60596.43241525807
58804.0485312057
56780.67297667606
54099.38225641424
48907.42634142113
40495.02430715965
34426.28364938901
30211.22024023255
28475.85868003753
27536.7924409473
26899.66958614583
26685.62381881029
26783.01074912245
27148.6263777932
27896.29261654146
29283.00254592828
32186.16605762907
36991.86004525134
40297.41912974156
30964.60392450884
33436.67005015252
36568.94508515547
38845.99008713604
40046.84561823097
40151.85359049569
40178.21167166789
40206.07674101623
40870.93642602251
41532.17801015858
41628.30988031109
40979.07569893967
40381.1764422335
39892.55869098315
39710.18753751653
39107.34097375484
38368.79418352083
37786.95241090578
37241.83500559916
36675.19573367704
36056.26617178709
35373.01451703035
34640.74456888497
33849.18662132513
33182.92643313594
32742.94688524543
34230.81509355684
37861.05622146486
40272.73013732737
40386.12319838491
41651.16133548453
40265.14527128117
74336.20452812374
73412.04496690084
72644.80828252906
71670.90873700885
70767.69703398529
69695.13615787801
68681.84411902116
67537.18931120267
66322.57488594756
65048.02765745534
63677.63697772919
62173.91741393611
60594.31725121236
58801.19907968915
56780.40923919531
54099.47113997127
48918.31822016709
40549.73535039782
34513.94287086173
30326.55481153055
28595.75444664107
27667.46286037542
27009.37486357457
26757.6845734736
26743.01747646527
26937.04747369153
27359.96193432816
28521.09065479213
31632.52256958633
37476.05432371122
39506.06775270974
29641.63970888947
30963.5134706737
33436.71564688975
36560.33777824017
38845.0507809761
40047.53304070955
40150.70029169749
40162.31816757112
40206.19979308938
40871.53220519549
41531.22261759744
41627.56636342311
40979.33378997554
40380.85005766297
39892.2425167378
39708.16407309041
39104.55027945778
38365.11754579064
37782.78869466455
37239.28258382142
36675.45825914358
36067.9822496649
35409.58880969066
34717.97104792447
33987.13928609202
33376.37228730162
33035.23685715957
34820.93406350718
38613.46414229162
39923.89827605924
40889.34154703669
40947.27045714507
39960.56511439149
75117.84722040326
74278.4865126267
73486.64275664945
72626.87560489611
71676.37104831146
70771.40297433318
69696.10658557503
68677.44054485916
67533.25896684048
66320.69410516086
65047.24637772121
63676.58304824872
62173.75078731625
60594.20762144047
58800.7172145813
56777.29816642541
54099.93452828219
48940.46376650095
40622.5279576047
34624.46351621908
30466.0293831195
28742.33276313991
27829.35387603454
27167.24142491399
26873.47578363267
26780.26229282027
26820.79164715205
27040.21445630181
27804.87567247076
31507.39165893782
35139.40847204669
39750.79513483443
30478.54930417738
29644.08004813953
30968.38023898303
33442.12232122096
36586.49780258445
38842.75606310426
40046.29959370272
40147.25514978055
40170.60372617155
40206.55606045013
40871.46417574213
41530.29179177945
41626.29420914121
40978.72904819893
40381.53146007899
39892.55550726041
39705.59737634925
39101.18542148421
38360.99725085835
37779.44185429814
37238.61216493146
36680.60876568391
36089.78721491457
35462.10129134772
34817.88016742896
34148.2481116567
33561.02486583922
33317.46753126173
35410.20447056762
38722.72570970085
40943.92526584934
40063.77081960264
41054.53157733984
41917.17151135694
40786.80581893758
39925.05914897017
41399.98427709829
75895.76716197605
75048.04910202246
74345.44226034379
73472.60452106791
72631.81694701625
71672.75995142329
70768.84801446678
69695.1399066525
68681.20493742108
67536.20690536035
66323.52875928994
65046.63248604772
63675.41168557802
62172.7650786205
60592.14231519976
58798.7352632968
56777.26262548153
54100.18497932628
48965.36418227701
40707.23358500638
34756.19283179882
30637.46756074548
28920.59732325783
28028.57342427693
27376.07039154972
27038.30955197855
26929.25992216044
26825.8816313024
26877.38410025919
27379.52347518996
29239.42673703907
33803.26008449093
39858.42391690922
31355.68200268511
30485.15213990352
29646.87570536321
30976.22183507272
33447.8155883042
36563.00878667324
38843.50882102828
40044.83792602277
40145.65036968022
40159.53544196753
40206.97580080082
40870.68677462993
41528.87357214511
41625.10522167284
40978.17885125446
40381.72219933647
39892.94877967089
39703.05982654605
39097.87521987425
38356.56779138908
37777.22058210742
37241.08365851166
36692.6908068028
36124.49081347509
35536.19738966101
34941.87783394702
34326.24192830917
33726.92806616714
33579.90530652343
35736.90187118705
39343.52095139307
37806.83334655458
41037.52885566887
40457.76328949117
41459.62325042993
41824.0141056619
41796.66901431059
39928.86526122459
41307.880175513
76630.29195255628
75828.77209528787
75129.20901125128
74330.10903685798
73479.01499401653
72631.7042604702
71671.50513910085
70768.98683870601
69694.54581382085
68678.0857654104
67531.48951243001
66319.34461553665
65046.30575406536
63674.79915558426
62171.48435600618
60592.33194398515
58797.52367556264
56773.20302840722
54100.90389391291
48996.5467274266
40813.02528891647
34917.77801426292
30847.20686744273
29138.16670259766
28271.79980264404
27651.69423579332
27299.99175046631
27152.15043993571
27003.98041934796
26870.14749289286
27434.21936499255
26892.17450123997
29642.17651596521
36141.89608347738
39618.49701654565
32387.35371506264
31355.86112474061
30480.85159332034
29646.98888163078
30960.28018536352
33443.17150528236
36576.94302263115
38841.24453489886
40042.80943510967
40144.48204225587
40165.37863698181
40207.68698391085
40869.76240782142
41527.57971053829
41623.17179169692
40977.65164845288
40381.76004625786
39893.13805602441
39699.2063591909
39094.18152474129
38352.94250660604
37777.46617727756
37249.11631705343
36714.81066393907
36178.89958969252
35634.69736673243
35092.07960569027
34542.75879731273
33944.23381068924
33620.0085486199
34969.05374327722
38974.45261516293
37455.44536584565
41536.13408063952
40987.94379535854
40204.86388458828
41657.96843650484
42264.46570318178
42050.8073708091
41164.94362055443
39647.13513873507
40907.34815420853
77372.73376237156
76624.61785427073
75908.63973962636
75113.63850555681
74341.13993425852
73478.14546851601
72633.75652637913
71672.84947226456
70768.29541400813
69694.34840354224
68680.09476543378
67534.98677620829
66319.78203724702
65044.1100541292
63672.85214277599
62168.39009641979
60588.60461000176
58795.72239433349
56772.29724364808
54101.87941498855
49035.26138527595
40940.68503011802
35112.02015007824
31103.97180701922
29404.30406834305
28569.52241934679
28013.73888703079
27673.34343219525
27499.28753569197
27232.11409590803
27144.14518449148
27146.64584421891
27078.65894141477
28262.96429002272
33611.93343499357
39286.07296589595
33469.41232788071
32390.19133251915
31357.1630790076
30482.56106875564
29648.03598593387
30976.34414771072
33440.0493693009
36567.32737522766
38842.86457155339
40041.41428945228
40142.84714528877
40168.12744742561
40208.10567037325
40869.44483091423
41525.43654272573
41621.24190153755
40976.74653874426
40381.83280143125
39893.25173406259
39695.24529175465
39090.51681003375
38350.17130971654
37781.69717058664
37264.37089152772
36752.76696887695
36256.73169687606
35762.37595996371
35281.22083224808
34800.39387217975
34096.63421315738
33910.33445732154
33939.82852212168
35853.06739546634
38344.5329304375
39335.70620919692
41353.70483170506
41286.91450397558
40627.0510748439
41316.2886188877
41891.63067921425
41879.03709877295
41239.91408123157
40176.97437638742
40912.24561615215
78042.80836329929
77376.39363632869
76632.21543232906
75891.63641982335
75118.76509182475
74334.3589753554
73475.48722227394
72631.05344469086
71672.06459720591
70767.62448691783
69692.78075812563
68675.16754393184
67531.46884100282
66317.90327790548
65042.63732453902
63670.63994033039
62167.28420565185
60587.34405599794
58792.92918926181
56769.503200577
54104.13581506033
49080.02825734019
41093.81789706537
35344.27672313697
31415.62573173447
29729.85717814467
28934.47401542834
28436.13432198891
28195.77565417068
27865.97654967657
27697.54430762836
27397.15985423797
27080.5479330182
27077.76833639935
27365.92575957191
27792.09347361956
36366.14511772803
28426.86171819076
39723.99863942383
34664.81669238234
33468.71726347159
32387.75406182533
31357.14686339979
30482.13633238266
29648.57121070576
30966.99196983087
33447.45320714272
36567.33087406975
38838.80730960394
40038.51143494446
40141.25735217726
40171.49858921453
40208.87865319594
40867.93767244987
41523.33251238055
41618.45499133307
40975.86174612796
40382.31358407331
39893.63580995869
39690.58717040967
39087.77474648556
38350.18816231329
37792.17414107065
37292.51783909785
36809.4504428513
36364.27796050441
35928.35943551354
35545.44212757467
35081.66659534341
34509.42796612096
33890.1779286479
34030.24396148552
35457.42279982547
37355.47082786719
39077.43886600228
41916.72907264311
41031.27166209036
40053.47614720761
41381.69074863593
41735.45505790215
42661.62045265556
41566.66431364063
41148.24537915003
39929.76523571827
78716.46027959666
78000.53325014598
77371.546558791
76631.22974464508
75898.64501055733
75120.19063494008
74338.85667794239
73477.93596061566
72631.41655037836
71673.02122496476
70767.17731673946
69694.37718816749
68677.03032609237
67530.78789639263
66316.5180935751
65040.47892891336
63668.35280941841
62163.49335285473
60583.30375751934
58789.77143380902
56766.81539100218
54110.17486736611
49141.30400182251
41279.74020441636
35623.14518045599
31792.10059770488
30132.75834887814
29366.8613125357
28994.730906679
28697.20215344118
27882.87583642166
28541.16074890484
28002.08376518016
27941.22214274535
26970.32445589557
27201.48041671196
27665.24092708707
26990.33073162112
33184.49182087206
27454.34124845859
39298.30002082954
35855.62451292288
34659.14894438066
33469.92985151699
32388.41988150219
31357.4053634222
30485.02639797689
29649.63282979416
30977.01837470989
33442.89053146735
36560.29601113198
38837.33666691015
40036.18129350536
40138.95112125489
40180.43872809745
40209.40941654496
40867.34128550386
41520.45779678658
41615.61215522715
40974.35465695006
40382.18230398421
39893.81466435317
39685.35182244287
39086.44192367762
38353.70154546104
37812.90586612844
37335.54350534285
36892.12168575378
36513.16769211288
36179.00270762435
35859.501851731
34946.57995289315
35675.92181402905
34539.91184294638
33967.05032022719
34272.09742154829
34573.83968122864
37310.04087922809
38358.57655374258
41758.23929722158
41498.06824523733
39974.7974318917
41220.77326403982
41818.67756113322
42173.37407293851
41860.06007460946
41076.64737339665
39922.2736366233
79372.52742132788
78706.72901973223
78049.6354933485
77374.48049928261
76633.30294306391
75894.29687959424
75118.5711896907
74336.23246527376
73475.23470061684
72630.42615056316
71670.93176152615
70766.22175522185
69691.59599273324
68673.90120710892
67529.2164134034
66314.59509909315
65038.42864560938
63665.31277473934
62160.64044414055
60579.73044140626
58786.24710947354
56762.52471201188
54114.24339454919
49211.88247983855
41504.27113384535
35953.76931365874
32245.59985486337
30616.30030327839
29951.60369698876
29356.51783649549
29252.03289565766
28361.71711968633
28733.68718576182
28395.96460338376
28007.09740271058
27127.78784397473
27642.876894666
27814.23793542451
26979.35131459112
27413.54211695434
36271.83663815233
26982.65865669903
39670.53817461828
37124.97139552003
35861.74403034284
34669.52589817979
33465.61818353875
32388.17957996126
31356.81764583493
30481.35908166633
29650.53891996951
30974.19599804789
33445.68554475292
36559.89201273274
38835.06980940924
40032.58188458075
40136.30988706373
40181.54066851149
40209.89569693059
40865.72161126522
41517.51961293036
41611.76448451859
40972.88419361217
40382.60141618738
39894.24539355609
39680.08827671814
39087.71182364367
38364.18218545416
37846.4061618187
37401.31474559382
37011.69773835592
36723.25282995588
36393.25203890158
36230.60739946306
35432.73969520978
35811.39212713268
35061.18501412376
34210.84728875216
34471.87038379135
34519.75065523126
35798.84490529804
37369.30932469424
41449.86292133726
41273.75485712014
39002.57143490208
40655.78474531131
42501.97738969543
42380.63233184581
42612.38913561722
41906.9778669528
41545.64268722511
41273.85334509988
40709.68410997974
80029.91333806366
79373.55099127511
78718.45653349983
78042.72391955327
77373.76592986274
76631.11307249295
75898.0719670546
75118.42651278239
74337.312995537
73476.72637335466
72630.98787816022
71670.56365738365
70765.17887409216
69690.74576670091
68673.37900745642
67526.80578397785
66312.17689080673
65034.80770987632
63661.8338844504
62156.09325939835
60574.73720176631
58781.9604827884
56759.13172034553
54122.81839473917
49298.25133512433
41769.62486596806
36352.35751940112
32777.58740288141
31280.02746973627
30356.83804236608
30034.20400175271
29705.68769871352
29414.78620400023
28905.99457041262
28407.73482617798
27349.5579617449
27911.01957458748
28248.7913627935
27245.80536720943