/*--------------------------------*- C++ -*----------------------------------*\
| =========                 |                                                 |
| \\      /  F ield         | OpenFOAM: The Open Source CFD Toolbox           |
|  \\    /   O peration     | Version:  v1912                                 |
|   \\  /    A nd           | Website:  www.openfoam.com                      |
|    \\/     M anipulation  |                                                 |
\*---------------------------------------------------------------------------*/
FoamFile
{
    version     2.0;
    format      ascii;
    class       volScalarField;
    location    "1000";
    object      rDeltaTau;
}
// * * * * * * * * * * * * * * * * * * * * * * * * * * * * * * * * * * * * * //

dimensions      [0 0 -1 0 0 0 0];


internalField   nonuniform List<scalar> 
18230
(
2900.572661968251
2898.03570911158
2940.21981311263
2843.698688204168
2918.910990027345
2841.211479521156
2986.649900833236
2882.568444228068
2787.939890396243
2990.485791093632
2861.677441203279
2785.501450510938
2966.33728490028
2928.0881380718
2826.047494341243
2733.274402349258
3050.295506915505
2931.848814797679
2805.566118826744
2730.883775010723
3028.414987974535
2908.173808725765
2870.674645168431
2770.634798373768
2679.680786616919
2990.485791093632
2990.485791093632
2874.361583134979
2750.555018457592
2677.337034324238
3025.476618815267
2969.034301935818
2851.150792868397
2814.386907027874
2716.308625856635
2627.138026095019
2931.848814797679
2931.848814797679
2931.848814797679
2818.001552093117
2696.622567115287
2624.840229729645
2966.153547858105
2966.153547858105
2910.817943074332
2795.245875361173
2759.202850027327
2663.047672408466
2575.62551577943
2853.784309460605
2874.361583134979
2874.361583134979
2874.361583134979
2762.746619699134
2643.747614818908
2573.37277424475
2941.430582946098
2907.993674370691
2907.993674370691
2853.743081445423
2740.437132707033
2705.100833360125
2610.831051380849
2525.123054685715
2910.859995649817
2797.827754373142
2818.001552093117
2818.001552093117
2818.001552093117
2708.575117352092
2591.909426293048
2522.914484553676
3000.25919460502
2883.755473476567
2850.974190559501
2850.974190559501
2797.787334750415
2686.703071281404
2652.059640549142
2559.638285667499
2475.610837927172
2911.811000506306
2853.784309460605
2742.968386640336
2762.746619699134
2762.746619699134
2762.746619699134
2655.46580132558
2541.087672836321
2473.445573091839
3060.264378497121
2941.430582946098
2827.211248506438
2795.072735842647
2795.072735842647
2742.92875955923
2634.022618903337
2600.05847112661
2509.449299674018
2427.069448948208
2977.098575044804
2854.716667163045
2797.827754373142
2689.184692784643
2708.575117352092
2708.575117352092
2708.575117352092
2603.397844436843
2491.262424349334
2424.946640286117
3065.891449846469
3000.25919460502
2883.755473476567
2771.775733829841
2740.267388081027
2740.267388081027
2689.145842705128
2582.3751165719
2549.076932477068
2460.244411445116
2379.479851910007
3036.6405465457
2918.72409318118
2798.741830552005
2742.968386640336
2636.455581161415
2655.46580132558
2655.46580132558
2655.46580132558
2552.350827879258
2442.414141518955
2377.398666947174
3005.775931222029
3005.775931222029
2941.430582946098
2827.211248506438
2717.427190029256
2686.536654981399
2686.536654981399
2636.417492848165
2531.740310364607
2499.095031840263
2412.004324946192
2332.823384225497
3097.373357476614
2977.098575044804
2861.494209001157
2743.864539756868
2689.184692784643
2584.760373687661
2603.397844436843
2603.397844436843
2603.397844436843
2502.304733214959
2394.523668155839
2330.783006810955
3027.49257755361
2946.839148256891
2946.839148256891
2883.755473476567
2771.775733829841
2664.144303950251
2633.859465668038
2633.859465668038
2584.723032204083
2482.098343494713
2450.093168470846
2364.710122496267
2287.081749240684
3159.320824626147
3036.6405465457
2918.72409318118
2805.386479412899
2690.063274271439
2636.455581161415
2534.078797733001
2552.350827879258
2552.350827879258
2552.350827879258
2453.239934524469
2347.572223682195
2285.081379226426
3028.973107969611
2968.129977993735
2889.057988487148
2889.057988487148
2827.211248506438
2717.427190029256
2611.906180343383
2582.215162419645
2582.215162419645
2534.042188435375
2433.429748524228
2402.05212595181
2318.343257349281
2242.237009059494
3222.507241118669
3097.373357476614
2977.098575044804
2861.494209001157
2750.378901385195
2637.316935560234
2584.760373687661
2484.390978169609
2502.304733214959
2502.304733214959
2502.304733214959
2405.137190710263
2301.541395766857
2240.275861986692
2969.581478401579
2969.581478401579
2909.93135097425
2832.409792634458
2832.409792634458
2771.775733829841
2664.144303950251
2560.692333669984
2531.583492568279
2531.583492568279
2484.355086701348
2385.715439729635
2354.953064658637
2272.885546420864
2198.271577509307
3159.320824626147
3159.320824626147
3036.6405465457
2918.72409318118
2805.386479412899
2696.449903318819
2585.604838784543
2534.078797733001
2435.677429578048
2453.239934524469
2453.239934524469
2453.239934524469
2357.977637951239
2256.413133104762
2196.348884300678
3033.090803907924
2911.354390589784
2911.354390589784
2852.873873504166
2776.872345720057
2776.872345720057
2717.427190029256
2611.906180343383
2510.482680068611
2481.944600557137
2481.944600557137
2435.642241864067
2338.93670561729
2308.777514371212
2228.319163157709
2155.168213244419
3248.30737928398
3097.373357476614
3097.373357476614
2977.098575044804
2861.494209001157
2750.378901385195
2643.578336587077
2534.906704690728
2484.390978169609
2387.919048605929
2405.137190710263
2405.137190710263
2405.137190710263
2311.742782305136
2212.169738338002
2153.283219902626
3034.700495249317
2973.618435203847
2854.269010382141
2854.269010382141
2796.935170102124
2722.423868352997
2722.423868352997
2664.144303950251
2560.692333669984
2461.257529479031
2433.279020154056
2433.279020154056
2387.884550847125
2293.075201585578
2263.507367030601
2184.626630546774
2112.910012984724
3313.273526869659
3184.615077729391
3036.6405465457
3036.6405465457
2918.72409318118
2805.386479412899
2696.449903318819
2591.743467242232
2485.202651657577
2435.677429578048
2341.097106476401
2357.977637951239
2357.977637951239
2357.977637951239
2266.414492456016
2168.793861115688
2111.061980296692
3118.562910265923
2975.196563969919
2915.312191376321
2798.30295135504
2798.30295135504
2742.09330402169
2669.043008189213
2669.043008189213
2611.906180343383
2510.482680068611
2412.997577920618
2385.567666817702
2385.567666817702
2341.06328514424
2248.112942730959
2219.124869637844
2141.790814261543
2071.480404886985
3327.855090495553
3248.30737928398
3122.171644832737
2977.098575044804
2977.098575044804
2861.494209001157
2750.378901385195
2643.578336587077
2540.924967884541
2436.473187899585
2387.919048605929
2295.193241643531
2311.742782305136
2311.742782305136
2311.742782305136
2221.974992603937
2126.26849128989
2069.668608134012
3180.934168471242
3057.414617907768
2916.859376441097
2858.149207231687
2743.434266034352
2743.434266034352
2688.326768648716
2616.708831558052
2616.708831558052
2560.692333669984
2461.257529479031
2365.683899922175
2338.791830213433
2338.791830213433
2295.160083474745
2204.032296795058
2175.612617292004
2099.794915942689
2030.863142046063
3262.603029897601
3262.603029897601
3184.615077729391
3060.952592973271
2918.72409318118
2918.72409318118
2805.386479412899
2696.449903318819
2591.743467242232
2491.102909690727
2388.699203823123
2341.097106476401
2250.189452591697
2266.414492456016
2266.414492456016
2266.414492456016
2178.406855494055
2084.57695224499
2029.086870719619
3187.734645261618
3118.562910265923
2997.465311674282
2859.666055334409
2802.107065913418
2689.641437288581
2689.641437288581
2635.614479067368
2565.400815252992
2565.400815252992
2510.482680068611
2412.997577920618
2319.297941100172
2292.933166875915
2292.933166875915
2250.156944583083
2160.815977250057
2132.95354636471
2058.622466610479
1991.042296123592
3198.630421468236
3198.630421468236
3198.630421468236
3122.171644832737
3000.933914679678
2861.494209001157
2861.494209001157
2750.378901385195
2643.578336587077
2540.924967884541
2442.257754598752
2341.861964532473
2295.193241643531
2206.068090776173
2221.974992603937
2221.974992603937
2221.974992603937
2135.692995582407
2043.702894357834
1989.300853646686
3193.87626101198
3125.230044374136
3057.414617907768
2938.69148203361
2803.594171896479
2747.163790111194
2636.903369890765
2636.903369890765
2583.935763791538
2515.098838483325
2515.098838483325
2461.257529479031
2365.683899922175
2273.821510882521
2247.973693015602
2247.973693015602
2206.036220179493
2118.447036519663
2091.130927808539
2018.257320206352
1952.00225110156
3208.690893508918
3135.912177910036
3135.912177910036
3135.912177910036
3060.952592973271
2942.09207321537
2805.386479412899
2805.386479412899
2696.449903318819
2591.743467242232
2491.102909690727
2394.370347645835
2295.943102482817
2250.189452591697
2162.811853702131
2178.406855494055
2178.406855494055
2178.406855494055
2093.816662335693
2003.630288586111
1950.294954555574
3102.99263426177
3131.251236286254
3063.951023896211
2997.465311674282
2881.070080425107
2748.621737153411
2693.297833442347
2585.199382245848
2585.199382245848
2533.27035665837
2465.783174983652
2465.783174983652
2412.997577920618
2319.297941100172
2229.236775375021
2203.895777466277
2203.895777466277
2162.780608019111
2076.908859333003
2050.128360596607
1978.68364726113
1913.727697158392
3272.864711379096
3145.775385793057
3074.423703833368
3074.423703833368
3074.423703833368
3000.933914679678
2884.403993348402
2750.378901385195
2750.378901385195
2643.578336587077
2540.924967884541
2442.257754598752
2347.421909456702
2250.924610277271
2206.068090776173
2120.403778139344
2135.692995582407
2135.692995582407
2135.692995582407
2052.761433662444
1964.343420182462
1912.053877015269
3042.149641433108
3042.149641433108
3069.854153221818
3003.873552839423
2938.69148203361
2824.578510220693
2694.727193287657
2640.488072002301
2534.509198280243
2534.509198280243
2483.598388880755
2417.434485278091
2417.434485278091
2365.683899922175
2273.821510882521
2185.526250367668
2160.68213477086
2160.68213477086
2120.373145116775
2036.185156208827
2009.929765290791
1939.885928687382
1876.203624665091
3281.417253845037
3208.690893508918
3084.093515483389
3014.140886111145
3014.140886111145
3014.140886111145
2942.09207321537
2827.847052302355
2696.449903318819
2696.449903318819
2591.743467242232
2491.102909690727
2394.370347645835
2301.394028879119
2206.788833605168
2162.811853702131
2078.827233469945
2093.816662335693
2093.816662335693
2093.816662335693
2012.511209472985
1925.826882531826
1874.562624524773
2964.7728081772
2982.499648463831
2982.499648463831
3009.660934531194
2944.974071411199
2881.070080425107
2769.194617863425
2641.889405183978
2588.713796080687
2484.812939490434
2484.812939490434
2434.900381255643
2370.033809096167
2370.033809096167
2319.297941100172
2229.236775375021
2142.672794478106
2118.315818402803
2118.315818402803
2078.797201094877
1996.259957067477
1970.51937773607
1901.848949693512
1839.415318299108
3328.466494098976
3217.075739063761
3145.775385793057
3023.621093611165
2955.040084422691
2955.040084422691
2955.040084422691
2884.403993348402
2772.399070884662
2643.578336587077
2643.578336587077
2540.924967884541
2442.257754598752
2347.421909456702
2256.268655763842
2163.518464318792
2120.403778139344
2038.065915166613
2052.761433662444
2052.761433662444
2052.761433662444
1973.050205365671
1888.065571109633
1837.806494632131
3008.064496308998
2906.640008016863
2924.019263199834
2924.019263199834
2950.647975030583
2887.229481775685
2824.578510220693
2714.896684179828
2590.087652141155
2537.95470203989
2436.091117147485
2436.091117147485
2387.15723652514
2323.562557937419
2323.562557937419
2273.821510882521
2185.526250367668
2100.659602429515
2076.780214120396
2076.780214120396
2038.036471661645
1957.117604968115
1931.8817428785
1864.557793817168
1803.348351273636
3395.035823980956
3263.202445195074
3153.995822611531
3084.093515483389
2964.334405501142
2897.098121983031
2897.098121983031
2897.098121983031
2827.847052302355
2718.038304788884
2591.743467242232
2591.743467242232
2491.102909690727
2394.370347645835
2301.394028879119
2212.02809388612
2121.096533645874
2078.827233469945
1998.10383839864
2012.511209472985
2012.511209472985
2012.511209472985
1934.362946436932
1851.044677558463
1801.771073168755
3086.666260900383
2949.082839518625
2849.647066683199
2866.6855521567
2866.6855521567
2892.792132382924
2830.617138995769
2769.194617863425
2661.663415862577
2539.30161974623
2488.190884352833
2388.324624654397
2388.324624654397
2340.350231887392
2278.002507781783
2278.002507781783
2229.236775375021
2142.672794478106
2059.470198460309
2036.059033451368
2036.059033451368
1998.074972217299
1918.74274996874
1894.001708704411
1827.997837075655
1767.988579680035
3300.300892345578
3328.466494098976
3199.218083524583
3092.152767266207
3023.621093611165
2906.210201471708
2840.292276453951
2840.292276453951
2840.292276453951
2772.399070884662
2664.743436067533
2540.924967884541
2540.924967884541
2442.257754598752
2347.421909456702
2256.268655763842
2168.654994005999
2079.506405535171
2038.065915166613
1958.925331763372
1973.050205365671
1973.050205365671
1973.050205365671
1896.434261212679
1814.749683880847
1766.442228596819
3172.088842069981
3026.143393039592
2891.257685802574
2793.771634003136
2810.476031526177
2810.476031526177
2836.070718022474
2775.114842152715
2714.896684179828
2609.473937120173
2489.511391908068
2439.402827796895
2341.49473005333
2341.49473005333
2294.461011654305
2233.335791942925
2233.335791942925
2185.526250367668
2100.659602429515
2019.088429863048
1996.136307305263
1996.136307305263
1958.897031585587
1881.120343106608
1856.864420298443
1792.154742231035
1733.322136941211
3208.513240847044
3235.589110142723
3263.202445195074
3136.488317180963
3031.522320849223
2964.334405501142
2849.225687717361
2784.600271033285
2784.600271033285
2784.600271033285
2718.038304788884
2612.493564772091
2491.102909690727
2491.102909690727
2394.370347645835
2301.394028879119
2212.02809388612
2126.132347064705
2038.731770132521
1998.10383839864
1920.515031140561
1934.362946436932
1934.362946436932
1934.362946436932
1859.249275698705
1779.166356745928
1731.80610646747
3109.891021637236
3109.891021637236
2966.807248078031
2834.566358629975
2738.99179804229
2755.368658358997
2755.368658358997
2780.461488257328
2720.700825639917
2661.663415862577
2558.307781490366
2440.697443047125
2391.571399800877
2295.583068679735
2295.583068679735
2249.47158005324
2189.544894061691
2189.544894061691
2142.672794478106
2059.470198460309
1979.498460650047
1956.996379711042
1956.996379711042
1920.487285868222
1844.235630496674
1820.455314018081
1757.014453167681
1699.335428373736
3213.526061288722
3145.60121651671
3172.146186414434
3199.218083524583
3074.988546255846
2972.080706714924
2906.210201471708
2793.358517369962
2730.000265718907
2730.000265718907
2730.000265718907
2664.743436067533
2561.268200756952
2442.257754598752
2442.257754598752
2347.421909456702
2256.268655763842
2168.654994005999
2084.443477514417
1998.756637384824
1958.925331763372
1882.857873667217
1896.434261212679
1896.434261212679
1896.434261212679
1822.79340754775
1744.280741907772
1697.849123987716
3048.912766311016
3048.912766311016
3048.912766311016
2908.634556939246
2778.986626107818
2685.286076512049
2701.341821920585
2701.341821920585
2725.9426355464
2667.353750627369
2609.473937120173
2508.144883814084
2392.840630438358
2344.677842942036
2250.571635960525
2250.571635960525
2205.364294169844
2146.612641236952
2146.612641236952
2100.659602429515
2019.088429863048
1940.684765343183
1918.623901677492
1918.623901677492
1882.830672419826
1808.074147545759
1784.760111782432
1722.563189380079
1666.015125856604
3218.568307970022
3150.515746361492
3083.922761290892
3109.947241582779
3136.488317180963
3014.694653192006
2913.804614426396
2849.225687717361
2738.586781735256
2676.470848744027
2676.470848744027
2676.470848744027
2612.493564772091
2511.047255644071
2394.370347645835
2394.370347645835
2301.394028879119
2212.02809388612
2126.132347064705
2043.57203677884
1959.565330769435
1920.515031140561
1845.939091830605
1859.249275698705
1859.249275698705
1859.249275698705
1787.052360340931
1710.07915873311
1664.557964693839
3002.103586898737
2989.130163050015
2989.130163050015
2989.130163050015
2851.602506803182
2724.496692262567
2632.633408345146
2648.37433521626
2648.37433521626
2672.492779947451
2615.052696693499
2558.307781490366
2458.965572366749
2345.922186704273
2298.703767590232
2206.442780353456
2206.442780353456
2162.121857029259
2104.522197291129
2104.522197291129
2059.470198460309
1979.498460650047
1902.632122885474
1881.003825174012
1881.003825174012
1845.912423941006
1772.621713280156
1749.764815472973
1688.787440568705
1633.348162604513
3223.623043723049
3155.459125460806
3088.740927805384
3023.45368754009
3048.967883904685
3074.988546255846
2955.582993325496
2856.671190614114
2793.358517369962
2684.889001701232
2623.991028180419
2623.991028180419
2623.991028180419
2561.268200756952
2461.811034945168
2347.421909456702
2347.421909456702
2256.268655763842
2168.654994005999
2084.443477514417
2003.501996842
1921.142481146505
1882.857873667217
1809.744207677063
1822.79340754775
1822.79340754775
1822.79340754775
1752.012117981305
1676.548194836382
1631.919573229254
3062.145658636712
2943.238810685036
2930.519767696093
2930.519767696093
2930.519767696093
2795.688732159982
2671.075188492713
2581.013145436418
2596.445426682607
2596.445426682607
2620.090960732795
2563.777153621078
2508.144883814084
2410.750561143872
2299.92371245517
2253.631144696305
2163.179196424957
2163.179196424957
2119.727310812998
2063.257056167773
2063.257056167773
2019.088429863048
1940.684765343183
1865.325610672033
1844.121397229423
1844.121397229423
1809.71806268726
1737.864424784467
1715.455701444091
1655.673961341868
1623.209766021439
1601.321728043641
3298.06481287564
3160.414748748087
3093.587377902751
3028.177380201357
2964.170281902049
2989.184199906554
3014.694653192006
2897.630385613232
2800.658030013837
2738.586781735256
2632.244119314933
2572.540223706293
2572.540223706293
2572.540223706293
2511.047255644071
2413.540230338399
2301.394028879119
2301.394028879119
2212.02809388612
2126.132347064705
2043.57203677884
1964.217643962745
1883.473020731868
1845.939091830605
1774.259027134376
1787.052360340931
1787.052360340931
1787.052360340931
1717.658939197358
1643.674700819983
1599.921150224759
3049.636023693286
3002.103586898737
2885.528245769643
2873.058595780484
2873.058595780484
2873.058595780484
2740.871306039198
2618.701165188934
2530.405044545508
2545.534732041772
2545.534732041772
2568.716628169407
2513.507013353998
2458.965572366749
2363.480942297914
2254.827169073696
2209.442298721868
2120.763918063683
2120.763918063683
2078.164030208822
2022.801035458602
2022.801035458602
1979.498460650047
1902.632122885474
1828.750598698071
1807.962154146494
1807.962154146494
1774.233394791432
1703.788651749477
1681.819315141266
1623.209766021439
1591.38212355043
1569.923262787883
3364.026109133153
3233.396875368274
3098.445832105967
3032.928801865442
2968.801353138585
2906.049295982401
2930.572745006425
2955.582993325496
2840.814103542384
2745.743166680232
2684.889001701232
2580.631489524444
2522.098258535581
2522.098258535581
2522.098258535581
2461.811034945168
2366.21591209647
2256.268655763842
2256.268655763842
2168.654994005999
2084.443477514417
2003.501996842
1925.703572512495
1846.542177188105
1809.744207677063
1739.469634445466
1752.012117981305
1752.012117981305
1752.012117981305
1683.979352154272
1650.960149170855
1568.550147279175
2983.264726507341
2989.839238914986
2943.238810685036
2828.949260558474
2816.724113510278
2816.724113510278
2816.724113510278
2687.128731410978
2567.354083518563
2480.789259358341
2495.622286315463
2495.622286315463
2518.349635460203
2464.222562111762
2410.750561143872
2317.138178723445
2210.614871640878
2166.119900707714
2079.18031182714
2079.18031182714
2037.415715891002
1983.138270057452
1983.138270057452
1940.684765343183
1865.325610672033
1792.892743821639
1772.511915829896
1772.511915829896
1739.444504697482
1670.381031126938
1648.84246582477
1648.84246582477
1591.38212355043
1560.178552500422
1560.178552500422
1539.140453713611
1539.140453713611
3391.116841230692
3298.06481287564
3169.996936635563
3037.691992260752
2973.459609672002
2910.589561900574
2849.067937237648
2873.110534320025
2897.630385613232
2785.111866218024
2691.905065372776
2632.244119314933
2530.030872082788
2472.645351505471
2472.645351505471
2472.645351505471
2413.540230338399
2319.819521663206
2212.02809388612
2212.02809388612
2126.132347064705
2043.57203677884
1964.217643962745
1887.944678933819
1810.335467831476
1774.259027134376
1705.362386711241
1717.658939197358
1717.658939197358
1717.658939197358
1650.960149170855
1618.588381540054
1555.736622010817
2997.658494929968
2924.769339713079
2931.214940112732
2885.528245769643
2773.47966721419
2761.494228931645
2761.494228931645
2761.494228931645
2634.439932755861
2517.01380737114
2432.146332704256
2446.688515995551
2446.688515995551
2468.970230843336
2415.90447265859
2363.480942297914
2271.704096787691
2167.269482000861
2123.646961478151
2038.412070418765
2038.412070418765
1997.466388128433
1944.253205938679
1944.253205938679
1902.632122885474
1828.750598698071
1757.737984138861
1737.756780225388
1737.756780225388
1705.337749703414
1637.628461889155
1671.89975461119
1616.512221396834
1616.512221396834
1560.178552500422
1529.586816176884
1529.586816176884
1508.961229130991
1508.961229130991
3324.624354147737
3324.624354147737
3233.396875368274
3107.840133956434
2978.129404177208
2915.15648007059
2853.519178333896
2793.20386003691
2816.775033647083
2840.814103542384
2730.501829625513
2639.122613110565
2580.631489524444
2480.422423610577
2424.16210931909
2424.16210931909
2424.16210931909
2366.21591209647
2274.332864375692
2168.654994005999
2168.654994005999
2084.443477514417
2003.501996842
1925.703572512495
1850.926155817469
1774.838693952427
1739.469634445466
1671.923908540433
1683.979352154272
1683.979352154272
1683.979352154272
1683.979352154272
1618.588381540054
1586.851354451033
1525.231982363546
3013.657931814483
2938.880877382322
2867.420921287332
2873.740137365423
2828.949260558474
2719.097712955088
2707.347283266319
2707.347283266319
2707.347283266319
2582.784247799863
2467.660595461902
2384.457188925741
2398.714231368187
2398.714231368187
2420.559049846408
2368.533796724108
2317.138178723445
2227.160879203619
2124.774001961628
2082.006824978579
1998.443206292907
1998.443206292907
1958.300380518072
1906.130594057528
1906.130594057528
1865.325610672033
1792.892743821639
1723.272533469472
1703.683117868027
1703.683117868027
1671.89975461119
1605.518099891328
1639.117406481559
1584.815903330229
1584.815903330229
1584.815903330229
1529.586816176884
1499.594917820474
1499.594917820474
1499.594917820474
1495.325472905437
1479.373754049991
3267.58895487571
3259.435641321311
3259.435641321311
3169.996936635563
3046.902092114151
2919.734709977655
2857.996549088814
2797.567821895976
2738.435156898931
2761.544150634395
2785.111866218024
2676.962578064229
2587.375110892711
2530.030872082788
2431.786689814291
2376.629518940284
2376.629518940284
2376.629518940284
2319.819521663206
2229.73810232911
2126.132347064705
2126.132347064705
2043.57203677884
1964.217643962745
1887.944678933819
1814.633486095558
1740.037935247478
1705.362386711241
1639.141086804346
1650.960149170855
1650.960149170855
1650.960149170855
1650.960149170855
1586.851354451033
1555.736622010817
1495.325472905437
3027.763864190049
2954.56659981812
2881.255762139531
2811.196981654247
2817.392291534729
2773.47966721419
2665.782071524596
2654.262042417959
2654.262042417959
2654.262042417959
2532.141419411631
2419.2750935901
2337.703126397785
2351.680618988419
2351.680618988419
2373.097107692556
2322.091957572655
2271.704096787691
2183.491058042763
2083.111766629047
2041.183161743705
1959.258045385203
1959.258045385203
1919.902333841247
1868.755484370126
1868.755484370126
1828.750598698071
1757.737984138861
1689.482875950463
1670.277566537281
1670.277566537281
1670.277566537281
1639.117406481559
1606.977849491724
1574.037352834636
1553.741081696303
1553.741081696303
1553.741081696303
1499.594917820474
1470.191095902426
1470.191095902426
1470.191095902426
1466.005365593566
1450.366425539207
3270.314749225508
3203.51858321148
3195.525138550305
3195.525138550305
3107.840133956434
2987.158913837403
2862.485009782014
2801.957401067465
2742.713550878408
2684.740349900913
2707.396226112152
2730.501829625513
2624.473115749244
2536.642265581089
2480.422423610577
2384.104597857148
2330.028940137533
2330.028940137533
2330.028940137533
2274.332864375692
2186.01774738148
2084.443477514417
2084.443477514417
2003.501996842
1925.703572512495
1850.926155817469
1779.052437348586
1705.919544360272
1671.923908540433
1607.001065494457
1618.588381540054
1618.588381540054
1618.588381540054
1618.588381540054
1618.588381540054
1555.736622010817
1525.231982363546
1525.231982363546
1466.005365593566
2994.55212241382
2968.395945284362
2896.633921390314
2824.760551117187
2756.075472210046
2762.149305426205
2719.097712955088
2613.511834828035
2602.217688645058
2602.217688645058
2602.217688645058
2482.491587658461
2371.838327049118
2291.865810193907
2305.569234302372
2305.569234302372
2326.565791855447
2276.560742718289
2227.160879203619
2140.677507885062
2042.266437871615
2001.159962493828
1920.841220965885
1920.841220965885
1882.257190040438
1832.113219970711
1832.113219970711
1792.892743821639
1723.272533469472
1656.355760735748
1637.527026016943
1637.527026016943
1637.527026016943
1606.977849491724
1575.468479893847
1543.173875328074
1523.275570290493
1523.275570290493
1523.275570290493
1493.407421853424
1470.191095902426
1441.363819512182
1441.363819512182
1441.363819512182
1437.260162346633
3206.190930613243
3206.190930613243
3140.704493344588
3132.867782892456
3132.867782892456
3046.902092114151
2928.587170428827
2806.357852727465
2747.017059870063
2688.934853802361
2632.098382255797
2654.310025600149
2676.962578064229
2573.01285857769
2486.904181942244
2431.786689814291
2337.357448879557
2284.342098174052
2284.342098174052
2284.342098174052
2229.73810232911
2143.154654295568
2043.57203677884
2043.57203677884
1964.217643962745
1887.944678933819
1814.633486095558
1744.169056224104
1672.470141529679
1639.141086804346
1575.49124068084
1607.001065494457
1586.851354451033
1586.851354451033
1586.851354451033
1586.851354451033
1586.851354451033
1555.736622010817
1495.325472905437
1495.325472905437
1437.260162346633
2927.550689278493
2935.835414131196
2910.192103219963
2839.837177833641
2769.373089330575
2702.034776676516
2707.98951512373
2665.782071524596
2562.266504733368
2551.193812397116
2551.193812397116
2551.193812397116
2433.815282018099
2325.331693185409
2246.927264895987
2260.36199441409
2260.36199441409
2280.946854760242
2231.922296782636
2183.491058042763
2098.703439103002
2002.221997913348
1961.921531856694
1883.177667613613
1883.177667613613
1845.350186314155
1796.189431343835
1796.189431343835
1757.737984138861
1689.482875950463
1623.878196799753
1656.355760735748
1605.418652957787
1605.418652957787
1605.418652957787
1575.468479893847
1544.576941072399
1512.915564047131
1493.407421853424
1493.407421853424
1493.407421853424
1464.12492338571
1441.363819512182
1413.101783835473
1413.101783835473
1413.101783835473
1409.078590535915
3169.615699637512
3143.32444177769
3143.32444177769
3079.122052298616
3071.439002835741
3071.439002835741
2987.158913837403
2871.163892577281
2751.331228164181
2693.153980264768
2636.210640982707
2580.488610054703
2602.264730980538
2624.473115749244
2522.561626056559
2438.141354845337
2384.104597857148
2291.526910666232
2239.551076641228
2239.551076641228
2239.551076641228
2186.01774738148
2101.132014015263
2003.501996842
2003.501996842
1925.703572512495
1850.926155817469
1779.052437348586
1709.969662964808
1639.676609342822
1607.001065494457
1544.599255569451
1575.49124068084
1555.736622010817
1555.736622010817
1555.736622010817
1555.736622010817
1555.736622010817
1525.231982363546
1466.005365593566
1466.005365593566
1495.325472905437
1409.078590535915
2973.498084275333
2870.147734586758
2878.270013854113
2853.129512960747
2784.154095915334
2715.071656206446
2649.053702624035
2654.891681493853
2613.511834828035
2512.025985032714
2501.170404310898
2501.170404310898
2501.170404310898
2386.093413743235
2279.736954103342
2202.869867545085
2216.041170994205
2216.041170994205
2236.222406627689
2188.159114492781
2140.677507885062
2057.552391277453
1962.962743052302
1923.452482212445
1846.252615307463
1846.252615307463
1809.166849327603
1760.97003072925
1760.97003072925
1723.272533469472
1689.482875950463
1592.037447842895
1623.878196799753
1573.939855840967
1573.939855840967
1573.939855840967
1544.576941072399
1514.291118698431
1483.250552987384
1464.12492338571
1464.12492338571
1464.12492338571
1464.12492338571
1435.416591554618
1413.101783835473
1413.101783835473
1385.393905721052
1385.393905721052
1385.393905721052
1385.393905721052
3172.778260229301
3107.466372193639
3081.690629193813
3081.690629193813
3018.747110096682
3011.214708662491
3011.214708662491
2928.587170428827
2814.866561350276
2697.383557023707
2640.347039475263
2584.520236257556
2529.890794171277
2551.23993233386
2573.01285857769
2473.099633388783
2390.334661613076
2337.357448879557
2246.59501045709
2195.638310432576
2195.638310432576
2195.638310432576
2143.154654295568
2059.933347073787
1964.217643962745
1964.217643962745
1887.944678933819
1814.633486095558
1744.169056224104
1676.440846043929
1643.569456905813
1575.49124068084
1544.599255569451
1525.231982363546
1525.231982363546
1525.231982363546
1525.231982363546
1525.231982363546
1495.325472905437