/*--------------------------------*- C++ -*----------------------------------*\
| =========                 |                                                 |
| \\      /  F ield         | OpenFOAM: The Open Source CFD Toolbox           |
|  \\    /   O peration     | Version:  v1912                                 |
|   \\  /    A nd           | Website:  www.openfoam.com                      |
|    \\/     M anipulation  |                                                 |
\*---------------------------------------------------------------------------*/
FoamFile
{
    version     2.0;
    format      ascii;
    class       volScalarField;
    location    "1000";
    object      rho;
}
// * * * * * * * * * * * * * * * * * * * * * * * * * * * * * * * * * * * * * //

dimensions      [1 -3 0 0 0 0 0];


internalField   nonuniform List<scalar> 
18230
(
0.5753599747726842
0.5534412159637341
0.5724134290032903
0.5715412984658174
0.5446455184820024
0.5498047586260919
0.5529616966784562
0.568673395717569
0.5690179507160154
0.5410080710224879
0.5424127269081961
0.5478833848343584
0.5146556504687988
0.5500610720356347
0.5669241078519863
0.5671474270483953
0.5271383896113327
0.5381281597676605
0.5413692214623363
0.5459541496571095
0.4363790122447351
0.5103329405875155
0.5486646741277033
0.5653271810905266
0.565273662211867
0.5141387198360268
0.5242505704977366
0.5364676033318266
0.5403348740982061
0.5443087208409304
0.5011345784047692
0.4336762695115851
0.5076922880986223
0.5477432922567045
0.563820976261371
0.5633207898834099
0.4979145004810065
0.5112850100278515
0.5228053647829547
0.5356152693002301
0.5393902872024804
0.5426268467403579
0.5315624403012688
0.5002547681896702
0.4320598643017035
0.5053126922125766
0.5465947275420584
0.5622712743168989
0.5613268012123677
0.4772423862734171
0.4953088968707058
0.5096433573584326
0.5211388749708739
0.5340692718970755
0.5384505369878212
0.5409774224968987
0.5473795024523587
0.5311947823929097
0.5008053634663691
0.4310499900118215
0.5030489705598054
0.5458701313581388
0.5606776306876256
0.559219142064996
0.4592770373538367
0.4751685978383204
0.4938742192602393
0.5084834755824655
0.5206457575235153
0.5331830227100449
0.5372983292157079
0.539244380632212
0.561372838777932
0.5451470980892362
0.5285929842789368
0.5007816511468592
0.430786271213605
0.5010690823106189
0.5451077137137962
0.5589646160337702
0.5570280530826732
0.4528990110966118
0.4586572884390318
0.47389737076177
0.4925462869213025
0.5071998668694403
0.5184872494745768
0.5318526316110653
0.5363436467328185
0.5374854359538777
0.5719488101005841
0.5588305748577749
0.5439262677636273
0.5279957226295779
0.5002115695628669
0.4308619742652499
0.4994078577733951
0.5441341309328388
0.5571804172082263
0.5547003591381423
0.4617531153431487
0.4549548842722689
0.4580504295342278
0.4728685732356532
0.4913113275663532
0.505776225835467
0.5173694623934232
0.5308660825156344
0.5352319638248664
0.5357792868092305
0.5806956059478399
0.5691999572412585
0.5575323732363524
0.5428310568102104
0.5268524265227095
0.5001267947438702
0.4313057010755925
0.4975289069406333
0.5430747058936737
0.5551361866618942
0.552244429919393
0.4770401610723031
0.4647879990660836
0.4555847943904799
0.4579781327134835
0.4719499878139491
0.4899882712793519
0.5042332515850243
0.5160181679170083
0.5294877005027974
0.5341783663205369
0.533809328716337
0.5879858488542161
0.5779116595464333
0.5678894030628213
0.5564589115879539
0.541865614722523
0.5258935100341955
0.4996152321099982
0.4324182097084914
0.495963374512188
0.541724748640928
0.5534378091612466
0.5496046036020706
0.5031835151747879
0.4774420279112254
0.4667755380277667
0.4565118533544831
0.4582026261951802
0.4711921031900611
0.488550183511962
0.5026151591632178
0.5144100592299751
0.5279130252538099
0.5329327331958136
0.5321901633356881
0.5945028872305906
0.5851672241588223
0.5765371504646278
0.5667891131803076
0.5554347977138013
0.5408575750719754
0.5249415927728935
0.4993138426987203
0.4336755125463729
0.4945907223509032
0.540002198193227
0.5507372866838255
0.5470639184194689
0.5580518972444056
0.505426832333956
0.4830430549843463
0.4673613759903464
0.457569883870983
0.4590348701356142
0.4707934099415083
0.487302143756522
0.5006994967340783
0.5124981282955626
0.5259472866002046
0.5312415491413159
0.530292898223107
0.6008803005762101
0.5916155149714968
0.583834860698325
0.5754331202320839
0.5657743720687879
0.5543808105782164
0.5397875606030128
0.5239133904349952
0.4992090757891066
0.4354601944677468
0.4934707616638304
0.5380274212740545
0.548166773196416
0.5442085811773264
0.6319952336349117
0.5631455408235813
0.5065901583867846
0.4816509022227738
0.4689010681914442
0.4584597333754942
0.4605337103352889
0.4710377305963874
0.4862395070367093
0.4989092858227817
0.5103004957290561
0.5238807976592392
0.5289418519889514
0.5282791654848897
0.6075121454216927
0.5979551897071417
0.5902036766022793
0.5826665518000542
0.5743337908078372
0.5646655637761292
0.5533303299088249
0.5387067154032641
0.5228114541766755
0.498979710382057
0.4378087817442452
0.4928314735879346
0.5364139326118701
0.5458933283922501
0.5411548717321609
0.7306373017226246
0.6355638302642796
0.5584866230257087
0.5074520599212373
0.4838782422871241
0.4699129319734915
0.4604926244192837
0.4625755390762195
0.4722865788067297
0.4861548476365462
0.4975345597508279
0.5083330875033953
0.5216168791284751
0.5259874568121451
0.5264345342982081
0.6164163056572204
0.6045758132469604
0.5965379136791381
0.589080090405784
0.5815993208008646
0.5732326268884476
0.5635722431446049
0.5521588032074868
0.5375888238213725
0.5217209668145913
0.4988178946762765
0.4405845313769198
0.4911116561029572
0.5331591632917887
0.5435120200488816
0.5378713281364039
0.7877957003286671
0.7310667464142782
0.6329702897044593
0.5615183437373125
0.5065451906503113
0.4838199653945727
0.4710388056418378
0.4624085433475159
0.4651354385479567
0.4749167953555019
0.4873977702604883
0.4974344692810686
0.5072561591727943
0.5195489125961444
0.5223573418530447
0.5246241132731209
0.6232309288527708
0.6132775211868293
0.6031940704195867
0.5954354718151919
0.5879894645410042
0.5804969688390795
0.5721461491842905
0.562452914530218
0.5510669702277482
0.5364151448683918
0.5206273178967276
0.4987538728352581
0.4439221848717083
0.4898485401720633
0.5298225322700274
0.5406720668913891
0.5351023809469942
0.8157499408201974
0.786646608851145
0.7296117788877234
0.6334639991300925
0.5595395270763869
0.5081305137683626
0.4844095330259927
0.471869464587393
0.4636344586830946
0.4675035306936795
0.4785304082689988
0.4906110779059978
0.4997016153823839
0.5085180821025137
0.5186391478247775
0.5179867862702027
0.5225249334347771
0.6241453135747963
0.6201849854093451
0.6119628922818587
0.6020094452061527
0.5942344314541386
0.5868515894751182
0.5793576937706866
0.5709746328323204
0.5612753316015079
0.5498453680277579
0.5352373033790105
0.5194516033591671
0.4987064952136147
0.4477929054011948
0.4898421261152415
0.5265955557862907
0.537909151430799
0.5327256878911535
0.8373317821132872
0.8146529511250544
0.786026163593578
0.7294800864295785
0.6332149773363238
0.5611270091344213
0.5068015930477293
0.4846799844832052
0.472504921096618
0.4647345658114525
0.4688535565801477
0.4821900253710703
0.4954655862590041
0.504741704507467
0.513020871317056
0.5200132658372875
0.5149080260694908
0.5197899287970693
0.6294144422902529
0.6211130582701627
0.6187271777606483
0.6107675028815758
0.6009248855878576
0.5931432950923881
0.5857379715330731
0.5782132885064613
0.5698076516829923
0.5600422005003942
0.5486233087821113
0.5340157093126197
0.5183794130986857
0.498715249685304
0.4520146697681287
0.4910945616878842
0.5240557672713267
0.5354451761375414
0.5311061009697809
0.8567383499709226
0.8361752229892256
0.8140342769736421
0.7855520309126982
0.7288832646875653
0.6328924161824466
0.5594971244826682
0.5077138837212187
0.4848680592660796
0.4729476568680601
0.4652801788986177
0.4693733454899656
0.4850723242210717
0.500302132267441
0.5111718430731078
0.5206906904730291
0.5257455414954897
0.51394173865927
0.516869129289249
0.6361364182430516
0.6262068547450942
0.6196560444833057
0.6175288877522664
0.6096590277120087
0.5997754717090663
0.5919750905537851
0.5845553201273308
0.5769769125271633
0.5685386025139971
0.5587989817465998
0.547326949894375
0.5327944569611111
0.5172533187649268
0.4988144301641815
0.4568511720881448
0.4932756998880512
0.5231629390333817
0.5342177984172426
0.5308958823250943
0.8734616913248715
0.8555350104676912
0.8354781945826838
0.8135322239904658
0.7849943360830531
0.7285376252412726
0.6333251327472765
0.5604948557627224
0.5071669091321885
0.4851118581351964
0.4731934327083471
0.4656720592391834
0.4694601505302463
0.4850208745780683
0.5030277163466598
0.5161627305420129
0.5296743344484791
0.5347407902064254
0.5170060396390062
0.5141432722636499
0.6439355644331825
0.6329821533331771
0.6247127484872401
0.6184627067646632
0.6163522889887589
0.6084727326319971
0.5985751207964671
0.5907753917762602
0.5833539063691389
0.5757466398364077
0.567254410654455
0.5574763159054843
0.5460605940326746
0.5315663648113406
0.5162687545936544
0.4989512077548243
0.4621034834987987
0.4961224802074473
0.5240732219409293
0.5342584084702576
0.53166022537194
0.8890054008312185
0.872127649855886
0.8547618144196277
0.8350010917930691
0.8130726442291893
0.7846886222628016
0.7279381496244166
0.632598061512799
0.5600595737731373
0.5075470096147384
0.4852758809317674
0.4734171984432008
0.4658889701176792
0.4695468567246429
0.4833077490328795
0.5027968863153257
0.5177525045460054
0.5343971479473656
0.546870107051645
0.5250484505745904
0.5154031143195178
0.6433198662016945
0.6408568025220663
0.6315296231926881
0.6235109500603497
0.6173224284813377
0.6152057831742447
0.6073272009555021
0.5974010114176828
0.5895381843506448
0.5820853580790644
0.5744307540472571
0.565920849234577
0.556148129652695
0.5446891054436245
0.5303805151370244
0.5153434837775309
0.499250702573323
0.4678762558628722
0.4998620316913481
0.5267347258660695
0.5358268407198284
0.5333262616195996
0.9043924509755723
0.8879619043251324
0.8713924740388441
0.8541619938449126
0.8343845147805915
0.8124981592231949
0.7841306254130257
0.7276603719222995
0.6326663121776682
0.5600814690782557
0.5076468132037437
0.4855066159987079
0.4736046017724769
0.4660892994450043
0.4693201146525869
0.481982869066023
0.5011821542058945
0.5165959278871373
0.5322743442196448
0.5550893119211379
0.5351163482080282
0.5206597313342997
0.6356231789325315
0.6402564256590757
0.6394164999238914
0.6303460459068307
0.6223362510800762
0.6161656681230484
0.6140109097750015
0.6061280434300411
0.5961550952537423
0.5882496177214424
0.5807555110787014
0.5730769556948314
0.5645361490932328
0.5547408848481167
0.5433529988798889
0.5292321600234683
0.5145895836365377
0.4997360673969893
0.4739895000726674
0.5050191530189106
0.5312779896252755
0.5383235845048264
0.536472834500288
0.9169646646642616
0.9026602610648348
0.8872632024767249
0.8708092512042909
0.8536404816481399
0.8339485189513148
0.8119862507184242
0.783650396846527
0.7269169002716216
0.6324150502914064
0.5602015303238642
0.5079247456606381
0.4857208520391944
0.4738241719585848
0.4662519606994923
0.4688661204303561
0.4803884577366926
0.4990355253263282
0.5144375200100707
0.5290766047717967
0.5575157460068121
0.5468789210736178
0.5312327448136525
0.6270937391969209
0.6324624398804355
0.6388455560120442
0.6382465917442144
0.6292444103844209
0.6212078102749348
0.6149706331026267
0.6127551625399761
0.604844001249435
0.5948737890718251
0.5869150616435889
0.5794055469070093
0.5716850056075831
0.563132743135546
0.5533088350199896
0.5420091299293591
0.5281661999296658
0.5139732814270445
0.5004111092321779
0.4803870053489245
0.5112257479700484
0.537501784860193
0.5421006101328034
0.5416553311629861
0.9307927042535598
0.9157859146119305
0.9019648210035562
0.8867561091427603
0.8702605819064745
0.8530810567385619
0.8333722090386598
0.8115084589778996
0.7831339816631432
0.7266836980467555
0.6322371020530542
0.5603398603997057
0.5081469390549208
0.4860310037183075
0.4740704931779139
0.4663826522400366
0.4683148503493489
0.4786864240265088
0.4965297624947108
0.511932619314971
0.5261228107713625
0.5549904295710399
0.5584221663239352
0.5447555386701374
0.6272221429929244
0.6234354017457928
0.6308514368874777
0.6376493904254696
0.637115882321645
0.6280863003267019
0.6200311321675911
0.6137495486331448
0.6114831943163501
0.6035398576853982
0.5935020926161645
0.5855358188001455
0.5779952025756582
0.5702578268937021
0.5616575253250512
0.5518734309962789
0.540711027732702
0.5271799755901724
0.5135777819559374
0.5013073005080979
0.4869088377657543
0.5181836684650134
0.5451776944872453
0.5473786133494253
0.5499543872064053
0.9426490818997664
0.9290396757287173
0.915249226872011
0.9013340352620169
0.886204672076638
0.8696527713000939
0.8525288733677647
0.8328369138336517
0.8110030016722121
0.7825703583060283
0.7260484647245569
0.6320497055357271
0.5604830485542825
0.508467795767566
0.4863424099183418
0.4743942651692593
0.4664803952944792
0.4677547691047307
0.4766869695577283
0.493534459085134
0.5090394073942703
0.5232749855159932
0.5509662463242538
0.5700098836206953
0.5602124555633391
0.6279486970961025
0.6240499648472244
0.6224803294772671
0.6296499392452392
0.6364965467807782
0.6359847337649887
0.6269113136481358
0.618804258252205
0.6124667112756876
0.6101394266867082
0.6021745400758179
0.5921303578989754
0.5841140592019362
0.5765669030665738
0.5687815905383463
0.5601826526950544
0.5504611887797125
0.5394569683660608
0.5263284363253244
0.5133974157834181
0.5024342590820751
0.4934839264639971
0.5259020058205666
0.5537109051903004
0.5537608587578581
0.5613615069799812
0.9533044229545302
0.9406907156520574
0.9282652837770633
0.9146101981345681
0.9006800227629416
0.8856346473062462
0.8690451614474896
0.8519009986826952
0.8322589685210073
0.8103899248484081
0.7820465028245036
0.7256168909160873
0.6319671713618876
0.5605846652759219
0.5087708019151136
0.4867339653781798
0.4747486723349874
0.4666160619328264
0.4672174810535886
0.4745412635220189
0.4898098320468023
0.5051374227553289
0.5201319527441659
0.5464440762840171
0.5753775699007931
0.5760520240437907
0.6289965083407192
0.6252042427998737
0.6226486626074071
0.6208746892454386
0.6284732681292239
0.6353425056528214
0.6348316366926058
0.6257464451220598
0.6175743084931631
0.6111539365519293
0.6087579545729026
0.6007608858184533
0.5906890380288145
0.5826502309844855
0.5750732246401653
0.5672853984032804
0.5587052984774354
0.5490723641828653
0.5382691905100966
0.5256218921547708
0.5134743507167776
0.5037250163051886
0.5001242555657947
0.533999790511272
0.5623940662171326
0.560748792790725
0.5698794222419221
0.9646853175982346
0.951064779671716
0.9401608543391949
0.9275350715530895
0.9140408598416938
0.9000128271499226
0.8850373253268774
0.8684761031616561
0.8513063324432649
0.8316765860585025
0.8098638196797853
0.7814384632223816
0.7250708040314944
0.6319006793170275
0.5608672565862294
0.5092071682121846
0.4871705148591237
0.4751891064671371
0.4668012574260497
0.466668084191967
0.4721990916487399
0.4852066682885875
0.5003396372075949
0.516135328882851
0.5420893316448641
0.5791979589846818
0.590199912615149
0.6162040344165343
0.625569045909763
0.6234004683334523
0.6212738815446942
0.6200306975824392
0.6272481240079694
0.6341759304219645
0.6336483424484788
0.6245215454232012
0.6162928080679951
0.6097813004787621
0.6073190067493186
0.5993018756213901
0.5892118012693831
0.5811509617305298
0.5735852167573461
0.5657830835554318
0.5572485251876919
0.5477178910536892
0.5371766823530575
0.5250899484473586
0.5138321457680991
0.5051663808132086
0.5066640103289426
0.5421970013594096
0.5707813121098348
0.5687805364236331
0.5756957095906599
0.9739460386180838
0.962725427079224
0.9508947983156819
0.939438588158983
0.9268475565186836
0.9134512247212178
0.8994143769655588
0.8844156867297805
0.8678263672282739
0.8507077663427661
0.8310470038959354
0.8092394287078015
0.7808874688924974
0.7245374502023644
0.6317796616936674
0.5610845595213297
0.5096728014306235
0.4877148847756708
0.475709440787247
0.4671447301843516
0.4661025138578106
0.4700878167817391
0.4801248504003316
0.4942115409125132
0.510667645317962
0.5380480701407268
0.5818877539919155
0.6070796674509895
0.5904148917774976
0.6126941304032577
0.6240711405952203
0.622245390050972
0.6203773379981167
0.6187691028000294
0.6260592980856468
0.632962091108737
0.6324091597733182
0.6232478576597562
0.6149560805030935
0.6083652909437159
0.6058269494396374
0.597798813858708
0.5877039167948386
0.579638254597577
0.5720621077136365
0.5642779734667972
0.5558047505159093
0.5464319879437785
0.5362135098351573
0.5247674969660288
0.5144852912531932
0.5069562252260521
0.5134834655257811
0.5503696843680017
0.5783201152098186
0.5763889306009239
0.5917180059979706
0.9840757278139893
0.9717270716624536
0.962134338137141
0.9499887228139554
0.9387290475579545
0.9261686774294741
0.9127690570868028
0.8987199624980605
0.8837667139136821
0.8671526783097543
0.8500164562725208
0.8304255924637967
0.8085912229576164
0.7802231015865698
0.7240500070231551
0.6317529473340111
0.561440701586163
0.5102955093005626
0.488367542413757
0.4763773964694728
0.467798437969961
0.4656964201504278
0.4679444625381465
0.4746996158151224
0.4867190952579671
0.5035289788236192
0.5334830044529855
0.5837645470897657
0.6144670214126438
0.5525873939050178
0.5875369699895545
0.6112219285507335
0.6229222058900176
0.6210675428932341
0.6188902692846208
0.6176401137884777
0.6248070694618584
0.6317054239389689
0.6311279320592996
0.6219181925339566
0.6135703433393691
0.6068988164360423
0.6042952880878847
0.5962559869879519
0.5861648675813369
0.5780974051252689
0.570544930450397
0.562783360018113
0.5544067219480033
0.545237394426043
0.5354056075192039
0.5246600270961276
0.5153360219140881
0.5084937198127208
0.5197438415539399
0.5580002249754561
0.5848420429852462
0.5845845149289892
0.5851945067632169
0.9926938312299124
0.9815017296399104
0.9714502174982297
0.9614132338136535
0.9493991310640503
0.9379922416863481
0.9254261907747746
0.9121055306681299
0.8980255560802612
0.8830622622531475
0.866487142933027
0.8493309559966977
0.8297706562629741
0.8079431466461147
0.7795558187580216
0.7235776432313675
0.631807146521242
0.5619295481028347
0.5110475274767362
0.4891978089844077
0.4772261054238491
0.4686624728460489
0.465514478987552
0.4661115444367712
0.4700649072132407
0.4785135173744036
0.4945712838878547
0.5283640925618768
0.5861140560579887
0.6202907987866327
0.5210502068725035
0.5496676160058084
0.5859994621173764
0.6100878896746498
0.6218027250334277
0.6199309959035574
0.6179578524997023
0.6164392049868405
0.6235093689009993
0.6304011010905757
0.6297884858563979
0.6205527784569526
0.6121690470759399
0.6054130954466471
0.6027280170696157
0.5946859601290665
0.5846046880121921
0.5765587257631485
0.5690327786132218
0.5613211355840563
0.5530784508233426
0.5441746622822218
0.5348127741889499
0.5248207559072438
0.5164091225661507
0.5105052902210685
0.5256461350416183
0.5653759475144621
0.5897492134068706
0.5812714080691083
0.5923804199499833
0.6086945458273658
1.001716386536216
0.9901534313056986
0.9816441119873496
0.9705915883376058
0.9606577349457474
0.9486500760240001
0.9373530252314334
0.924738510448733
0.911388131904198
0.8972955687091341
0.8823428693791691
0.8657657077677708
0.8485999302261555
0.8290574601752496
0.8072639082503883
0.7788537804293492
0.7230375160371156
0.6318855357452084
0.5624913707737446
0.5120185501088198
0.4902300297272825
0.4783218592761037
0.469569610118323
0.4657735988929125
0.4651562108939502
0.466616311024424
0.471026151505356
0.484352827647453
0.5206264646096684
0.589075002015341
0.6121772075701661
0.5027763281938433
0.5180534241438886
0.5482328535142855
0.5848343701105093
0.6089807366717703
0.6207046579034642
0.6188265410712438
0.6165906180002121
0.6151979784674066
0.6222028236109909
0.6290398448567959
0.6284008734262773
0.6191536757313972
0.6107176877193493
0.6038882673808307
0.601123653934124
0.5930895461939559
0.5830384304389403
0.5750167908811648
0.5675431012447397
0.5599045317583193
0.5518468761506278
0.5432912748014606
0.5344683186825636
0.5252848288044241
0.5176767008339361
0.5130768247023565
0.5316247840997887
0.5732899897608562
0.5851236569455908
0.5873662906745791
0.5837622324966525
0.6115800894117436
1.009723051371864
0.999243316516387
0.9901875903568303
0.9806493956555383
0.969913553047435
0.9599794285298184
0.9479454580615477
0.9365816381483898
0.923947115303737
0.9106332446350233
0.8965449028732519
0.8815822777330015
0.865027875112362
0.8478612510923956
0.8283340991908188
0.8065140244270317
0.7781244650446379
0.7225766595792369
0.6321151537947555
0.563265795137937
0.5132168551049421
0.4915315858302558
0.4797396988137649
0.4709354986441618
0.4664132868240354
0.4646259926973441
0.4644126698118818
0.4660274538984138
0.474550323820206
0.5176714198199184
0.5595758175200167
0.6136871350393162
0.5110039792894125
0.5000579634370602
0.516749420748563
0.5471935220628674
0.5841434478137488
0.6079064902550448
0.6196167242574337
0.6176754444719184
0.6155545201200222
0.613932899357742
0.6208449424730644
0.6276219220772602
0.6269616688425532
0.6177031003172896
0.6092471926912935
0.6023503608156591
0.5994946508252937
0.591478628677501
0.5814660653694408
0.5734941158148303
0.5660922262004396
0.5585710624243141
0.5507656964254083
0.5426367255390502
0.5344581742843407
0.5261427846785306
0.519041291424057
0.5159340310567672
0.5381431591750451
0.5737736509505643
0.5960159821454735
0.5878227123074728
0.5874123093568983
0.5964508856163067
0.5985923673903415
0.6165263740200561
0.6266006500670324
1.017796447387325
1.007033147885523
0.9991606922558562
0.9892310174003548
0.9799667060121271
0.9691414308992444
0.9592152084088947
0.9471870008398517
0.9358627574861974
0.9232075274807805
0.9098869405853918
0.8957600054631338
0.8807856666258388
0.8642458212721795
0.8470680102252462
0.8275442975327612
0.8057578351400394
0.7773431050028363
0.7221124243332383
0.6324286920208424
0.5642219234542942
0.5147306795828918
0.493148216800335
0.4815611141401552
0.4728504262151829
0.4678296612108679
0.4656025886114269
0.4632360414835611
0.4630368487268142
0.4671243085575189
0.4887958008142229
0.5417604078502375
0.6092023060378977
0.5204542682612969
0.5086079896859913
0.4988387326381502
0.5158197280745515
0.5462716053274674
0.582888650190546
0.6068854001895703
0.6185276542353157
0.6165404690086478
0.6141886953935033
0.6126433409329453
0.6194290733887542
0.6261539547511746
0.625475481479569
0.6162179608851509
0.6077502765491405
0.6007980078318615
0.5978566304558274
0.5898601097359459
0.5798993746921745
0.5720006680928624
0.5647043479405529
0.5573533545745247
0.5498790231834896
0.5423040591055865
0.5348427519156379
0.5274193286207014
0.5207039984908525
0.5193111076834954
0.5422348847477542
0.5806871947748057
0.5642440752543545
0.5969041362128592
0.592390504603318
0.5944654397773789
0.594084921818923
0.6131687469263611
0.6155249737268634
0.6309753726747181
1.025172389325698
1.015175377516963
1.007130768604888
0.9981934620797933
0.988563710330835
0.9792118412152727
0.9683869469170165
0.9584557016069022
0.9463977613354518
0.9350428533025307
0.9223525881601685
0.909032360308155
0.8949429240856634
0.8799489880707598
0.8634191456169656
0.8462371515430073
0.8267155420107272
0.8049090197280816
0.7765198740650251
0.7216647426866024
0.6329089747102481
0.5654517608170514
0.5166209709129178
0.4951473100170284
0.4838179204865273
0.4754133117292751
0.4701808886507101
0.4673213131889994
0.4644415782528029
0.4601291630568327
0.4667252057503965
0.4600842815799719
0.491631160092675
0.5673623945980875
0.6060012017463635
0.5319736690750546
0.5181853136133172
0.5073874147570947
0.4978481288113792
0.5146546763029148
0.545217066342268
0.5820988347361291
0.6058102184007309
0.6173771222865315
0.6153632624636558
0.6130523636342093
0.611322377159227
0.6179742228669355
0.6246475225786734
0.623936496220017
0.6146994357784888
0.6062298589207671
0.5992365899693184
0.5961991623028446
0.5882427568561885
0.5783567663839865
0.5705612057426294
0.563415399358239
0.5562973935792699
0.5492929520243159
0.5423675933594381
0.5357542067827576
0.52964703176803
0.5240504661731434
0.521199164815184
0.5361915702460671
0.5787726558311992
0.5621553819540763
0.6026556478971076
0.5975929350359789
0.5914247203177195
0.5959221570066385
0.6085796763805257
0.5984286327900559
0.6249065888919529
0.608647079742978
0.6277294276600166
1.032121994552704
1.023382832426806
1.015202363755737
1.006155514440713
0.9975527776325297
0.9877953350564576
0.9784725975921601
0.9676286892877656
0.9576466569247328
0.9455813358348176
0.9342421211117891
0.9215457373652978
0.9081845193227482
0.8940601822536526
0.8790509368042715
0.8625057016342607
0.8453132129848634
0.8258346328319318
0.8040319704944499
0.7756303156909693
0.7212377227562106
0.6335543092749436
0.5669702601270279
0.5189743772993203
0.4976182352418548
0.4866124872598376
0.478919126621471
0.4736590249314678
0.4704462231418313
0.4643315178842399
0.4625778978640966
0.4614365952250519
0.4606379865518601
0.4744886342333461
0.5369842077943899
0.6010632734702569
0.5445386722783921
0.5299933839549857
0.5171583268683069
0.5065081777995427
0.4969132997236608
0.5138771212326857
0.5441738091133278
0.5809746380654717
0.6047541186896447
0.6162217641162179
0.614165109168922
0.6118468279026915
0.6099704874623167
0.6165038028968084
0.6230852142594341
0.6223537785694423
0.6131467256060933
0.6046937666585612
0.5976746106476557
0.5945471832045454
0.5866400994383186
0.5768474703886113
0.569201041748857
0.5622561506040508
0.5554978986074669
0.5490902393278351
0.5429862407100201
0.5375933691972339
0.5335460123375921
0.5275951279732646
0.5249802943388742
0.5262326869417902
0.5465602505849633
0.573099476962542
0.5833291687984991
0.6010631638965339
0.6014504304437969
0.5977690346967672
0.5923673912565829
0.6086402293239448
0.5962225487772157
0.6280589994457202
0.6116112814972884
0.6240143210427885
1.039709576517096
1.030728121167209
1.02251639765269
1.01420873644946
1.005455999707013
0.9967078544821364
0.9870008341587245
0.9776579488513788
0.9668062389816414
0.9568073894063508
0.9447141749399758
0.9333304994087592
0.9206279158068349
0.9072606951075728
0.8931374128365772
0.8780856993535389
0.8615565043645254
0.8443678968229624
0.8248866506649581
0.8030754028798872
0.7746747649145155
0.7207942282439211
0.6343796243506349
0.5688137166749068
0.5218574937402133
0.5006616491524732
0.4900668899353346
0.4828943845812133
0.4788210889939227
0.4720582089105568
0.4688090791123994
0.4646711826617637
0.4599011000645937
0.460030863516185
0.4635648212248442
0.4681447270108992
0.5668864243144113
0.4751092932736491
0.6046452067276115
0.5586848860802465
0.5425832981026586
0.5289753366599461
0.5163377947331697
0.5056385049938289
0.4959560604349814
0.5127383832077014
0.5432317082665183
0.5799500350105261
0.6036251937916614
0.615028343250875
0.6129321300130788
0.6106229497843151
0.608607233398647
0.6149790418621741
0.6214803616708345
0.6207245164646851
0.6115666325536971
0.6031501607899228
0.596121168884005
0.592901782997005
0.5850685247723728
0.5754023832496026
0.567957946817754
0.5613191231601723
0.5550274976402835
0.5494463764249943
0.5445016123495257
0.5415863783986441
0.5386706653044774
0.5333857888023792
0.5266298359679988
0.5284434730094226
0.5437519786049662
0.5642727427989477
0.5835519759443938
0.6079080494833519
0.6010131671511939
0.594116475508692
0.5987530983183
0.5955907139013245
0.609937741126872
0.6257658142677094
0.6270250861683202
0.6078203711177855
1.046486885274124
1.037408720750617
1.029940739946416
1.021739502615583
1.013532511074037
1.004682215636068
0.9959759990441849
0.9862286852231891
0.9768305296084276
0.9659663716183785
0.9559308128791493
0.943838916187124
0.9324471711130672
0.9196981740137
0.9062864362402128
0.8921396058298939
0.877063241276851
0.8605323851866397
0.8433385036605241
0.8238695097407921
0.8020460582862368
0.7736665604709564
0.7204176151241443
0.6354389108710307
0.5710512659980207
0.5253440222141955
0.5044737969324339
0.4940616753909716
0.4883691663404338
0.4814885545349845
0.4713119909964433
0.4789759458815355
0.4713192733119186
0.4701955054420798
0.4576025001859737
0.4606141335506322
0.4661927509321035
0.457824588266098
0.5301215479000814
0.4631903323626611
0.5959597545107179
0.5730367924941884
0.5568920412555274
0.5416814771966344
0.528233283263342
0.5155591746410569
0.5048116852836142
0.4949693694122204
0.5118282454820171
0.5420970988854171
0.5787902289629302
0.602488735860363
0.6137962013420215
0.6116544195917415
0.6094506847887564
0.6072058947512301
0.61342969642499
0.619835055551371
0.619058658001001
0.60995017733042
0.6015890514023816
0.5945755177298666
0.5912713559454539
0.5835432895085234
0.57404079954648
0.5669067796249432
0.5606682557004948
0.5550753350549289
0.5507157769814732
0.5483166678130863
0.5473896026696375
0.5380899444068328
0.5460587217419235
0.5347463698228097
0.5284825520714264
0.5318493440665438
0.5353820330549238
0.5650104510246937
0.5771492531654112
0.6083639083382621
0.6072671343225096
0.5948912944693706
0.5983450677298503
0.5958479408334495
0.6069460406267775
0.6336559967810977
0.6239817025481061
0.6065180279896113
1.053175416650499
1.044623848132875
1.037048537617445
1.029293991864036
1.021006285528678
1.012698563876821
1.003872489797392
0.9951321754716783
0.9853628370444649
0.9759465190021035
0.9650568738760134
0.9550011860873904
0.9428738639182678
0.9314629477835048
0.918709171921811
0.9052397363329011
0.8910784726414746
0.8759861310395082
0.8594613701467058
0.8422493180920635
0.8227670362717332
0.8009011027989239
0.7725209991111008
0.7200061942548571
0.6367639802439706
0.5736937652824512
0.5295501869316286
0.5089410502422377
0.4997091591591433
0.4894308826104553
0.4870328939549498
0.4757028365617924
0.4800763163558167
0.4755474984299204
0.4703256337934025
0.4595532791001984
0.465682816724964
0.4678346459283622
0.457338251165214
0.462122099309526
0.5643827255626936
0.4573189265788182
0.601654626429283
0.5883274039978779
0.5713319203456655
0.5561367522317274
0.5409368991765311