/*--------------------------------*- C++ -*----------------------------------*\
| =========                 |                                                 |
| \\      /  F ield         | OpenFOAM: The Open Source CFD Toolbox           |
|  \\    /   O peration     | Version:  v1912                                 |
|   \\  /    A nd           | Website:  www.openfoam.com                      |
|    \\/     M anipulation  |                                                 |
\*---------------------------------------------------------------------------*/
FoamFile
{
    version     2.0;
    format      ascii;
    class       volScalarField;
    location    "1000";
    object      T;
}
// * * * * * * * * * * * * * * * * * * * * * * * * * * * * * * * * * * * * * //

dimensions      [0 0 0 1 0 0 0];


internalField   nonuniform List<scalar> 
18230
(
210.2633935647594
205.7651730575041
209.824339604253
211.7558391471011
206.5831914244116
207.1656470463225
204.715785110681
211.1253838936107
212.5642361943258
211.4495188088297
207.4618305972255
207.992877495364
202.0062061600536
205.8919492820989
211.8041042665792
213.2096881447929
209.7618941626313
212.6222625824534
208.0327161466487
208.6677390413975
202.9511942699201
203.9062771773428
206.438960588265
212.328020732859
213.8527060558266
208.3523677312604
210.9944312378192
213.1682758592038
208.4666619111813
209.3578302691346
205.634093743815
205.1540097713662
205.1030568925447
206.8842069387999
212.8642864315099
214.503399468401
207.1573541696505
209.6374318289397
211.587052968239
213.613575464725
208.9386156305646
210.0605765760665
209.0589047962807
206.0320324827696
206.3033342860195
206.1279616432344
207.2761115333987
213.3821614882069
215.1790682321258
205.2835275781952
208.3800680494996
210.2598352909306
212.0562433835408
214.0674488354993
209.4127366898965
210.7645292920373
211.8833619053998
209.7614958349246
206.3697875478722
207.1317772245994
207.1845556119489
207.7157409333473
213.9336312250273
215.8800618850812
203.7114607330351
206.344354072668
209.0059705141252
210.8029427534826
212.5673662721373
214.5300444976016
209.9109508404387
211.5035133923498
213.8688495959728
212.7534821186811
210.2016259732536
206.6763728189514
207.8942826811488
208.2591069053149
208.1785644699354
214.5079230981586
216.6243840037811
203.365200027671
204.1618134510764
206.8959122012926
209.5501375933439
211.3574138420325
213.1106694745637
215.0508699663944
210.4470522444467
212.2601063411353
215.3254576984406
214.8465479105671
213.2576502988496
210.6128311279139
207.0193179268112
208.6197013325987
209.3435924706919
208.6697716173629
215.137014943754
217.4161522432048
203.7315470948789
202.5747481633564
204.3750642966078
207.3401986251054
210.1082696569603
211.9614607226189
213.7104223207283
215.6136051914889
211.0335620800837
213.0533443906605
216.5260069405617
216.346522467909
215.3373220919367
213.6435008450747
210.9976432491113
207.4072255131746
209.2904880221143
210.4610444114379
209.2132516714477
215.8409574120932
218.2637663339222
204.089676827477
202.0381029575379
202.2592500345814
204.4751617200052
207.7500293513076
210.7105275026043
212.6240122257247
214.4039121621095
216.2571439526526
211.6854916944937
213.8932958180667
217.5777632653708
217.5556004641024
216.8550787358671
215.7408740792989
214.0453539982293
211.4134694294441
207.8009589907066
209.9497973032758
211.627433350602
209.8576138213499
216.6318141746348
219.1845388881156
205.778529694861
202.0829064378223
201.6995800582104
201.84377650244
204.3591893536511
208.0991862159775
211.3241264039993
213.3609307905494
215.1820821449265
217.0024558544295
212.4183307526087
214.7509783031244
218.4492574925854
218.5959150214355
218.0696160733003
217.2604420630695
216.1342122404381
214.4460309625184
211.8779129260167
208.2457291617946
210.5879700753279
212.8041503730184
210.6137919768863
217.4742761679116
220.1795755157399
212.4016821673989
204.7290900787143
201.9379747947613
201.1513901753491
201.3282452312501
203.9827493878092
208.263411334904
211.9235670203669
214.1719618261286
216.0662146155686
217.8940792249742
213.2494928078893
215.6364925190322
219.2633633893027
219.4956610547946
219.123226165557
218.4859875657158
217.6680210250791
216.5331246702997
214.8538995827661
212.3451589688413
208.7370371481238
211.1628413733661
213.9985789941623
211.5374539134199
218.3751393801783
221.2539485204917
221.8379194604296
211.9397569410592
204.5771453720907
201.6163638785924
200.7832032142516
200.6491725619146
203.3504956883232
208.1597413502578
212.3608977027342
214.9851651238509
217.0599301214764
218.934814200929
214.258635687932
216.5640275750477
220.1698266810786
220.3159439216148
220.0098927547493
219.5352679350445
218.8920806666656
218.0678505116077
216.9503462778559
215.2953860806007
212.8281716327175
209.252243945977
211.7304551856999
215.2026303586916
212.6905084483763
219.3784489124485
222.3949854599259
232.8772215427545
221.3977528968487
211.9136599218866
204.5596637767816
201.4913333847851
200.3215490420915
200.0683457018492
202.399647140077
207.5719678617847
212.4648782239189
215.6185805377666
218.0253617790248
220.0858961674854
215.5142977752961
217.5065224255584
221.1125834636192
221.2282314087199
220.8311293294658
220.4285240571068
219.9447149696186
219.3001715264164
218.4819013608024
217.3679327430776
215.7407608787829
213.3628904289439
209.8229043282238
212.2669773887566
216.4052142522711
214.1089329763664
220.4851432642189
223.5941692286414
239.2448784989841
232.942378165194
221.4834959735094
211.9015609549421
204.4300119150652
201.3053124094943
199.9169462570001
199.4330330661445
201.2868339027242
206.4083601760367
211.9206370471437
215.7040162475173
218.6311180109954
221.2343707418244
217.0797620110273
218.5310656203464
222.0248660964547
222.200804672954
221.7281125113361
221.2634122785262
220.8468146346411
220.3547581193564
219.7223550054408
218.9122406964616
217.8181582479398
216.208462252564
213.9171044128219
210.445078860244
212.7781739450198
217.5628055113422
215.7293272341962
221.6786929228407
224.8251830889272
242.507104279239
239.6308414386942
233.152218583265
221.4566614464788
211.9425716174842
204.4419902613053
201.2337683687645
199.6043109049276
198.8952613919492
200.2043867179431
204.7062795935728
210.5117843361129
214.8435951345969
218.3640673219685
222.0443899087723
218.8597553541854
219.7865583532808
222.6585837753456
223.095018921315
222.7164592141891
222.1466348305317
221.67216066308
221.258997772419
220.7708658684332
220.1501375990344
219.3523378160081
218.2794911811511
216.6989721081599
214.4968705964387
211.1153177663972
213.2810525923349
218.6222111712879
217.4847876053825
222.9435264137584
226.0551338200899
244.6591641547841
242.8230632848256
239.7855579328075
233.3058263322483
221.5631792438969
211.8831165599688
204.4158337616736
201.1769747701342
199.3988316813098
198.5106059190559
199.4463094592526
202.943441264847
208.3618051310645
212.8080315326245
216.8306146604515
222.1033986594082
220.7049150519896
221.4086246246369
223.496691606688
223.7358691809616
223.636831577357
223.1248100455283
222.5684113314372
222.0939398006914
221.6837104140681
221.2075383015025
220.6043478135995
219.8171020807581
218.7582188972835
217.2125423540667
215.1106983003136
211.8471855630008
213.8055914894685
219.5727666793254
219.3073872662596
224.2558222638031
227.2856633964733
246.4062130957666
244.9995399470658
243.0189497593693
239.9248843330878
233.44427339541
221.5713272915194
211.9149977798341
204.4358044833234
201.1594431019927
199.2975488703399
198.311181421992
199.0433578355236
201.7785321811895
206.1118552660532
210.0846997710125
214.0602507535854
221.1530408086738
222.5201750130232
223.2902354600513
224.4228623408926
224.6345687313263
224.2570642690827
224.0658127511698
223.5478116775289
222.9834564380704
222.5292546634431
222.1175225601716
221.6565307345605
221.0667878241863
220.3041922626274
219.2540560899818
217.7404338835363
215.7405281711866
212.6331672405379
214.386948982236
220.4406464192464
221.0811873139377
225.6484432810077
228.5752390332738
247.9820063724514
246.7607403952317
245.2016238624018
243.1654052877671
240.0557640827435
233.5995152808571
221.7466460065361
211.9332438554241
204.4314969784472
201.1733194719792
199.2884866289415
198.2425407418076
198.9253914773264
201.1384423705958
204.6342577156037
207.7231468316782
211.071677127711
218.8614335250417
223.9943772376406
225.2536123100671
225.2357380148858
225.5315018351555
225.172110006586
224.6950877787895
224.4759312235022
223.9653367169232
223.4106399473678
222.9706672661123
222.5727532230381
222.1305574098513
221.5546112688271
220.799805025346
219.7725274298765
218.2951572312949
216.3957981310938
213.4732834298911
215.0701699834905
221.350511167356
222.8095081670428
227.1548203244336
229.9395107177985
249.5316551511656
248.3570318676838
246.9743013363617
245.360401277248
243.3213605708505
240.2146640221412
233.7417296706911
221.7581461573295
212.0158042869085
204.4691048130475
201.2029865026561
199.3205372211959
198.2467468390604
198.8758312349816
200.9856377621993
204.0384404400625
206.5771116630437
209.0716304017214
215.7396850681402
223.7992262643204
227.5499350338417
224.9289314075727
226.2980471693229
226.0516740736466
225.6064723842907
225.1155420923123
224.9037557532688
224.392570912364
223.8562236732593
223.4294558710395
223.0469020164975
222.6202827122403
222.0608867272865
221.3157765893834
220.3128413318069
218.859805577363
217.0642052054271
214.3769825550673
215.8003838840677
222.3157998183884
224.6028237314761
228.7728214930871
231.5738053151646
250.5636118495273
249.8541641008793
248.5720238113498
247.1342957054948
245.5062996907756
243.4547169215593
240.3534206626142
233.9256740240631
221.8964310449543
212.0342343080671
204.5132189019883
201.2501918067924
199.3818405266515
198.3018130557423
198.8817640029545
200.9650590975102
203.9694413451277
206.4344908348488
208.4894097091519
213.221121075997
222.6904692738677
229.5737355188515
224.0219615811043
225.9794655486337
226.813821053566
226.4700402091222
226.0232322755729
225.5328252559842
225.3417078840648
224.8405751911322
224.3158412203587
223.9078413580022
223.542147535549
223.127414255531
222.5788965509382
221.8518616459895
220.8697573614371
219.442150279256
217.7444687192421
215.3341272280503
216.6222707510915
223.0863195412541
226.4395808910659
230.4388106860208
233.5188961689536
251.9670123329921
251.0175738007859
250.0094245779132
248.7394900788634
247.3011966883527
245.6637399012979
243.6057434564046
240.5026677283947
234.0545096189762
222.0050087869453
212.140084029734
204.573328231645
201.3134965466139
199.460388163267
198.3982665307811
198.8824271939516
200.8847790381822
203.9361667194751
206.5175263675122
208.5730332329692
211.8045466384687
220.8923274897186
230.6508239413822
223.3496953276247
225.1576974740863
226.497662668102
227.2270697480907
226.8808962128255
226.4476531110583
225.9672696340868
225.7917073186976
225.2998520332071
224.7974582001441
224.4113421055428
224.0536201706522
223.6521053001285
223.1163114556394
222.4090741853645
221.4298136749398
220.0369667077042
218.4418564963989
216.3313507432134
217.5442686476726
223.923794928724
228.2363218376653
232.0906906485903
235.8853225377419
252.7616418606997
252.2721412636354
251.2391221751202
250.1620231531894
248.9075041607339
247.4607704797715
245.8165979323903
243.7654089140325
240.6579804203087
234.2642396048375
222.1227163114105
212.2339197403022
204.6579048788568
201.4020799921304
199.5607801223341
198.5220036273042
198.9068935408108
200.7349895973199
203.7675304534344
206.4574331462888
208.8883449602947
211.56107955618
219.2951691689611
230.9205711086081
223.2203461267358
224.4748270739827
225.6918015273926
226.9123988483696
227.6295122192758
227.2892733318862
226.8797796548326
226.4243395806308
226.2678789838329
225.7852016353113
225.296301357071
224.9270065256768
224.5805196981853
224.1905018505531
223.6698186594169
222.971923775898
221.9993599241111
220.6482295513319
219.1559708616765
217.3580121865809
218.5826739565116
224.9297236955086
229.992791831817
233.7543906719778
238.1581638126299
253.8106681462244
253.2215280246514
252.4616810182096
251.4199537976308
250.3209172519555
249.067629365576
247.6302290299015
245.9752760220471
243.9301408558592
240.8155202755915
234.4251587475842
222.2578633759337
212.35616530081
204.7711925557719
201.5177888085123
199.6876884154932
198.6806910155335
198.955596142641
200.5820123203498
203.4920882289048
206.2084911797588
209.0138804572243
211.6681612082023
218.0669983134453
230.5540863433279
222.7419256367803
224.3341397504092
225.0271863468307
226.1359466308641
227.3226579424643
228.0330591501736
227.7084967347808
227.3195750821136
226.892561581207
226.7569487194129
226.2892210589707
225.818529504403
225.4580731286498
225.1276856006463
224.7461289606864
224.2356308826722
223.5368450851905
222.5795398491436
221.2768519452642
219.8887860295175
218.4048495037369
219.7492315836395
226.0826724715944
231.6953847092144
235.4442960235994
239.9398692689722
254.6841256837849
254.2655471170888
253.4588576354408
252.6116991232684
251.59814034887
250.4820705371448
249.2342222806663
247.7935685855843
246.1429997826242
244.086068846311
240.9906029468719
234.6220023073867
222.4279737441173
212.4909673192002
204.9167154571433
201.67350431248
199.8463310043702
198.8719453297836
199.0019185316138
200.4258557244575
203.1404817267376
205.868587104408
208.8684760111362
211.9556942010907
217.4874232091027
229.8942564474418
221.8310172291573
223.8815999036609
224.8568231166942
225.4762730039918
226.5667593499643
227.7317804880223
228.4454023788401
228.1420993115426
227.7774830090235
227.3841325625007
227.2705106474837
226.8127879629518
226.353649315058
226.008931721801
225.6844500308561
225.3105237658809
224.8026970637411
224.1062338520832
223.1686391244228
221.9221625534137
220.6462211706377
219.4563711106549
221.0362508573906
227.4078772258567
233.2952828472927
237.1333152977036
241.8283959163412
255.5553384730103
255.1313181762529
254.4936100925122
253.6508584731188
252.777571280253
251.7706532473016
250.6503654271177
249.4099363942132
247.9714294503918
246.3136646611474
244.2654124641072
241.1647134476073
234.8122899016362
222.6122642232018
212.6841375010535
205.1046584011065
201.8726765583951
200.0480258520897
199.0968419553798
199.0637336355504
200.2716959330487
202.7309047669508
205.3700277686686
208.5003356081753
212.2142408343271
217.4888359227047
229.1281071739133
219.6554403843914
223.0201216815074
224.4117475471617
225.2672347255113
225.9013336758409
226.995807989461
228.1517656604313
228.8702650292715
228.5860141830636
228.2537738368386
227.8960430474444
227.8026298186027
227.3585772662655
226.9051654015179
226.5721109292728
226.2534870248378
225.8807285746495
225.3746181065222
224.681519512689
223.7675237753857
222.5865006960728
221.4292830798907
220.5174917056429
222.4406793042322
228.8792195519431
234.7516002180325
238.743283655325
242.3005530572868
256.3583543394649
256.0067142573827
255.3611743916403
254.6891811241005
253.8406462804661
252.9486850983746
251.9576532954547
250.825393411308
249.587446122443
248.158617100125
246.4905766061858
244.4424026113167
241.3586791978522
235.0123965958739
222.8026062884728
212.880277633925
205.3314730508118
202.1191835810237
200.3009379436381
199.3617322256315
199.1546428849402
200.1450200074291
202.1634036501341
204.7515940632101
207.9729297815855
212.3549365745873
217.9645324042565
228.4147957084356
215.8147684580268
220.8816416435792
223.5565023303627
224.8226885419435
225.6819932971567
226.3386659807026
227.4330144747957
228.5838236309679
229.315878065485
229.0528488197985
228.7507885865321
228.4297223834442
228.3577433490867
227.9194392152314
227.4725914674574
227.1449914007152
226.8292740450997
226.4556171320471
225.9480806323961
225.2631654155099
224.3783341511582
223.2710823320287
222.2350972653373
221.5251634703966
223.905717831339
230.3839254048215
236.044984044132
240.2096501665282
243.0010122483574
257.1132825861993
256.8124184380844
256.2330808096521
255.5507170264694
254.8733848686432
254.0324625303944
253.1223011843412
252.1420773546609
251.0129335761695
249.7724177209205
248.3445919253433
246.6794808752801
244.6252085982572
241.5510490338032
235.2309381774335
223.0262971907445
213.130993508043
205.608011732207
202.4192594851374
200.6168157667913
199.6573225942082
199.338971987158
200.1043127976325
201.6153184733117
204.006967829624
207.1901231295445
212.3597924402647
218.8358800972464
227.9675449249492
210.7940652784121
216.912603448506
221.4026069155118
223.9655809016162
225.2284955328623
226.0903204848054
226.770283810402
227.8830238738638
229.0391829438781
229.7784728932525
229.5420911755224
229.2637480363318
228.9784797937156
228.9283856145502
228.4954291222949
228.0505157314879
227.7260204873022
227.4108806686506
227.0325686572141
226.524175494339
225.8505999202236
225.0017634947356
223.968369074518
223.0482614088749
222.4986832095037
225.3913844950092
231.8600388319439
237.1805506212344
241.5329256479606
240.529686061239
257.8468417969111
257.5501489209793
257.041078067768
256.4335815320637
255.747820855148
255.0549584290468
254.2212174774891
253.3088250178476
252.3374830192444
251.2051200915805
249.9692629609803
248.5420718374679
246.8760535720681
244.8214950527941
241.7546855429974
235.4612695543021
223.2785183366453
213.4214592129835
205.9381405086389
202.7786079052176
201.010604686261
199.9477757623343
199.6981206032483
200.1701652455909
201.1962316515123
203.0869844164556
206.2607156830645
212.2099601024724
219.8638579151562
226.3141481442294
207.0216511650722
211.9105995375288
217.3927350355528
221.8112668642439
224.3600376025516
225.6275146020552
226.4965330553003
227.2119961383007
228.3502104714649
229.5078556574513
230.2628490906713
230.0452368812942
229.7933265370534
229.5460867665638
229.5146278775433
229.086983713381
228.6365555102407
228.311679594718
227.9940949947444
227.6097473668189
227.1034987150604
226.4454336794912
225.6395670514653
224.6813612377493
223.8466452762519
223.433005905811
226.8577271324647
233.2841370198497
237.8885357756347
242.0376993569537
244.9380361013187
230.4409577534641
258.5148028712338
258.2822949713517
257.7984652415411
257.2386368038271
256.6233620344529
255.9329700319597
255.2516591485401
254.4215242540786
253.5057540929002
252.5389795603652
251.4081602488123
250.1714027628429
248.7474951965153
247.0764554251068
245.0263517281947
241.9729944162541
235.6896423754345
223.5524436315854
213.7511811160947
206.3322870340748
203.203628947858
201.5017947238029
200.3753813107002
200.1259807728495
200.2817583331817
201.1036195680941
202.3486356248892
205.1323243862846
211.6593205391685
221.6221062276702
224.8104317840495
205.3795574730276
208.2118762684384
212.4654736556628
217.7745491514316
222.2091560208721
224.7608032368711
226.0237124647654
226.9089737585798
227.6711169916491
228.8330519890549
229.9992248203012
230.7671855428333
230.5665226616615
230.3375644131467
230.1238706147793
230.1154623982885
229.6872235229376
229.2287904955417
228.8986832702584
228.5768630610159
228.1872518474771
227.6842924163663
227.0481485233568
226.2883424590218
225.397744130938
224.6002955905348
224.2977092645457
228.1733974486919
234.6357687648251
237.6922899103531
242.5107027529216
244.3536183847375
227.6187818376026
259.161612598949
258.953392766642
258.5358298570709
257.9962585086508
257.4380828759197
256.8181363459184
256.1267739688196
255.4455103628016
254.6246269643134
253.7087077589237
252.747391551686
251.6208998529659
250.3841174893441
248.963760153101
247.2901938634939
245.2407355094387
242.2018638333182
235.9467301019965
223.8724004342941
214.1408318913003
206.7972490012244
203.7043924909575
202.0818349367963
200.9619912747077
200.7163445417229
200.7895636124224
201.1858094021848
202.1289133827194
204.1119796911734
212.0254894822747
218.7586930681859
225.6465057956643
207.7781243015426
206.5130215671839
208.7701022011948
212.9034481500378
218.1881404950797
222.5886773551282
225.1485074088505
226.425498856555
227.3377961807757
228.1422809765603
229.3331625247949
230.5136722807067
231.2898482752226
231.1045601800833
230.8974093975029
230.7132275275325
230.7258388659887
230.2929686737922
229.8239719751296
229.4860985798081
229.1585721388083
228.7641221728597
228.2691648717363
227.6591416758127
226.9438478109933
226.0969067416678
225.2491274733563
224.9611999018601
229.2241770116535
235.1013543164675
239.3102948750338
237.4298248211205
243.4713533631754
244.8201126386946
237.3659019806667
225.5920132407982
230.1649275171703
259.7684698193665
259.6124122023144
259.2082503674825
258.7363943459623
258.1935561235354
257.6302054889997
257.013468004582
256.328311433609
255.6557426005818
254.8397321735056
253.9276565788774
252.9664705586521
251.8438410720222
250.6067162326193
249.1884097686385
247.5178624679218
245.4707358866934
242.4464396603319
236.2185412156163
224.2279962674507
214.5912712245592
207.3493229553965
204.2958775036801
202.758651859444
201.6866421868872
201.3360732005249
201.4832017283893
201.7351027020413
202.2093604304187
204.184715240039
208.3872766067268
217.3607555840127
227.9231270844454
209.8763430708673
208.8021663059136
207.0372912458728
209.1993395933936
213.2990615863463
218.5174578286791
222.9675057200931
225.536704451998
226.8332530372612
227.7805688574382
228.6248864231016
229.8529921301622
231.0462026740296
231.8327921449905
231.6584320957178
231.467213368457
231.3116289387588
231.3432005634129
230.905320767109
230.4182691411373
230.0717402735594
229.7370233706619
229.3394430377589
228.8571015424848
228.274767958418
227.5883031464516
226.725322859625
225.6397891714463
225.2587484072044
229.5933245011247
236.0265105963651
233.4173353543305
239.5004999605099
237.9159684637443
242.9565162244671
245.2488581471237
237.4605518507373
225.9805708749484
228.0606255938229
260.3954496609605
260.2092670284799
259.8679759416107
259.4059064769057
258.9336383124074
258.3921941116305
257.8264148497119
257.2176371556948
256.5398872092312
255.8682967379094
255.0581290666034
254.1503391163509
253.1961566974472
252.0808758625377
250.8414908856461
249.4338503600311
247.7608857125759
245.7120268610343
242.7066954970662
236.5156024266043
224.6401320770841
215.1200303193654
208.0049289294259
205.0017701733045
203.5641602279095
202.6190242240002
202.2680813448947
202.4037033183365
202.5473211962812
203.4323903329501
204.7675634824443
203.6190167970702
210.0392696846463
221.9116985117029
227.7478690264579
212.0875324342828
210.7965233295031
209.2749357232676
207.4500400006334
209.5650091255148
213.6819439358517
218.8973416686958
223.3502042941152
225.9455642868526
227.2605771990802
228.235978112751
229.1229586192457
230.388907056273
231.5961898403198
232.3938298972704
232.2277226380392
232.0479480030432
231.9154530054517
231.9638320982735
231.5183125627656
231.0110106282412
230.6536851428961
230.3122683476443
229.9132916948551
229.4463419942678
228.8806899671949
228.1777679876376
227.1957948744955
225.6434390024792
224.7107865925048
227.1923533485331
234.5858602306415
232.1070886142936
240.0969555930665
238.935394907864
236.8148512057329
243.5220914037
241.9288994066058
244.7889363795246
229.4786216674108
226.9217269511573
227.0171409579601
261.148009750242
260.8314801481184
260.4764116353718
260.0659530118812
259.6110331668711
259.1319882222801
258.5947180054507
258.0332937732105
257.4324260911047
256.7606593385736
256.0950907928252
255.2946631379434
254.389280517551
253.4375922028717
252.3306895000904
251.0946491539183
249.6911241874295
248.0175713304365
245.9761284760747
242.9894334279737
236.8426287672339
225.1132548932304
215.7373548859024
208.7852167115939
205.8469468930693
204.526479392436
203.7692777138802
203.5286855261662
203.6297684258464
204.3068866709803
204.4189263247787
204.9434083262043
204.7845624916442
207.5017230833277
218.052862695918
227.6922445009406
214.1160240589633
212.8986349058134
211.223898714816
209.6499689718997
207.8476506847287
209.9910038676048
214.0716152466356
219.2632551897213
223.7495792769875
226.3613040775137
227.6946586182611
228.701327287803
229.6331595466305
230.9366119259496
232.1649060933998
232.9740317693538
232.810665155774
232.6378342030846
232.5222098355339
232.5851462504549
232.1290415194518
231.5987053571677
231.2307501053193
230.8816355882239
230.4822219663429
230.0248417517131
229.4390582255708
228.6227859819111
227.2176650000584
225.1337190440626
225.0188406473236
224.678561432525
228.516774430222
233.0790565562685
234.9108464456415
239.6757649015879
239.1345897778282
236.7618350947736
242.9740936240368
239.7708722045761
244.6910600607969
228.7426353786785
228.8397960315929
228.3960415890831
261.4873335198291
261.5135346976577
261.078381304237
260.673199036794
260.2646479371192
259.8074088044292
259.3311980823366
258.8005644091916
258.2499714823759
257.6557912384883
256.9905613979109
256.3268386181263
255.535867884757
254.6411002090252
253.693693937122
252.5992880845624
251.3668145424746
249.9654664198314
248.2908037691909
246.2569980369174
243.2993043255815
237.204713840504
225.6612960942547
216.4605958981101
209.7121543353952
206.8608518867179
205.6790425466447
205.1389902181919
205.1353883284432
205.6404400796339
205.8140712231749
205.3948809225789
205.1269915295532
205.0480815558941
205.6503651499194
206.8097155583687
223.4760684159779
208.4323874120097
228.8664617422648
216.1482864045523
214.8831977088107
213.2923212629206
211.5594532868064
210.0076301430864
208.2525745658918
210.3938318714362
214.4903484444424
219.6506506137252
224.1446299572806
226.7841006634994
228.1436553859412
229.1789482175665
230.1519524446177
231.5006519468348
232.7526331514473
233.5698955333262
233.4071336691044
233.2359870510948
233.1303876727978
233.2032394486005
232.7362453248503
232.1804530665621
231.8011083125007
231.441736728163
231.0333339506579
230.5576127676136
229.8624483955567
228.6367295717325
226.8750315816563
225.3855824746902
224.1806893587975
224.3346383667111
227.1622320242784
230.6189306283672
233.2793840563918
240.203484456575
237.8268051807796
234.8542528508402
240.763289659075
244.110829701767
243.6585481523846
231.3998919784435
228.6105223749938
228.8502108887328
262.0363721117901
261.9253234144633
261.6970651670225
261.273535494234
260.8712085158832
260.4700409211696
260.0140500458545
259.5428860677013
259.0210750095241
258.4779589664962
257.8904287751752
257.2347710586834
256.576622163514
255.7916150805917
254.9095152431866
253.9690077223993
252.8846776587455
251.6506199149897
250.2538890491411
248.5839889630971
246.5613696133893
243.6435523130934
237.6250191415955
226.3043811415081
217.3136337053976
210.8168115513641
208.0798791749878
207.0647522262154
206.8238687309215
207.6267952672738
206.0909339074355
207.5810667308402
206.9688385625916
207.0125791681723
205.318268938333
205.7240628092911
206.7277377286608
205.3708990679696
218.0667873968394
206.4815980714508
229.7135655653672
217.9739506036409
216.8086946577234
215.2487452768487
213.5963417670178
211.8807063320473
210.3715407283964
208.67518498989
210.8361979829131
214.9099562398018
220.0484552181758
224.5589244970508
227.2261250435589
228.6070992892799
229.6708706055547
230.6861531206291
232.0819685997363
233.3543011819812
234.1824239968168
234.0170885143441
233.8404687302759
233.7374784482683
233.8154506508712
233.3366026538721
232.7524897336093
232.3583128185282
231.9777446634214
231.5322617560692
230.9679952977767
229.8555290153388
228.2114969612173
226.2453256808498
227.5965459867124
225.0107106667442
223.9014945847306
224.4821779471685
224.9643146348737
230.0377204789873
231.5283390022571
239.1159514806254
238.0553327343632
234.0876326793804
239.9905995142533
244.4920059012757
242.0572399408759
230.1315218967299
229.3258155094448
229.2985795446564
262.5423135151153
262.4712497552098
262.1812364705277
261.8714301080169
261.4682379587027
261.0710760954587
260.6745168930483
260.2253428271983
259.7613990708626
259.2521606317691
258.7140136963526
258.1379813955742
257.4877809277952
256.8360292184523
256.0610191668285
255.1968587924868
254.2634290993088
253.1835344143353
251.9526499770174
250.5627345073204
248.9021590666933
246.8951870225385
244.0231948220492
238.1022816244672
227.0618198649617
218.3202947509999
212.1256305437495
209.5632084448392
208.8010040082779
208.9502918038131
209.2317418025302
207.6952630135349
208.5023189688975
208.0139860623998
207.4432290067523
205.6403444141641
206.7868121164114
207.1116822907707
205.5056602772466
206.6513413339529
223.8853342677774
205.539537749913
229.6945248508885
219.8248883146472
218.6617044809676
217.1681431389052
215.5172595995654
213.887561699326
212.1996301736318
210.7286337221968
209.1100050627825
211.2883702448064
215.3622851413259
220.468758609515
224.9874082425032
227.680217711873
229.0876364555014
230.1783662535005
231.232357934296
232.6761970536157
233.9705714363197
234.8123322169061
234.6394390236175
234.4521102497158
234.3424967267057
234.4184377583907
233.9273344960437
233.3069724481316
232.8876220966625
232.4555752015331
231.9096154838167
230.9136327814137
229.2621583342337
228.6150980044506
226.622663723921
227.3718191686847
225.5235985535349
223.7971226656141
224.3931406299321
224.3319681990209
226.8307239022821
229.3549602335674
238.871540099396
236.5248810900273
231.802323135933
235.0529554299078
241.7598058226239
244.3737898128791
245.0520618583808
233.4669066755942
229.6601498238288
229.640941460311
230.3439327018037
263.0611844273421
262.994192560688
262.7141347868409
262.3831297333825
262.0516957741672
261.6626191140276
261.2818137348492
260.8886312002934
260.4497192662893
259.9952941819198
259.4961271597761
258.9644453386155
258.3989422660154
257.7557661939247
257.111208533929
256.3505780864232
255.5029336344354
254.571328017695
253.5003416843809
252.2734016561768
250.8963277104642
249.2512785930739
247.2704580698011
244.4571092495872
238.6584499491178
227.9519056621296
219.5157197474265
213.6960624883667
211.454388862606
211.230620271962
210.9041624064805
210.6443585662918
210.1760785456053
209.2254350207407
208.3555786550568
206.241513200249
207.4248857816867
208.0480067776606
206.0452214097578