/*--------------------------------*- C++ -*----------------------------------*\
| =========                 |                                                 |
| \\      /  F ield         | OpenFOAM: The Open Source CFD Toolbox           |
|  \\    /   O peration     | Version:  v1912                                 |
|   \\  /    A nd           | Website:  www.openfoam.com                      |
|    \\/     M anipulation  |                                                 |
\*---------------------------------------------------------------------------*/
FoamFile
{
    version     2.0;
    format      ascii;
    class       volVectorField;
    location    "1000";
    object      U;
}
// * * * * * * * * * * * * * * * * * * * * * * * * * * * * * * * * * * * * * //

dimensions      [0 1 -1 0 0 0 0];


internalField   nonuniform List<vector> 
18230
(
(-15.79400366106764 -6.822202748306016 -4.845206649883076e-16)
(-22.1384246192144 -1.283810635070482 2.626412525699347e-16)
(7.332226232172046 6.555723834719053 -5.459315138124668e-16)
(-18.85156250886449 -7.367887341261285 6.188820748338505e-16)
(-1.541161878006154 0.3245840706071432 2.499543569327546e-16)
(-28.99013280071844 -1.839832627043721 2.158437556262802e-16)
(13.93779312652483 22.49671711773473 1.951269386854003e-15)
(7.328227777026575 6.811453164280258 9.542014731224747e-16)
(-19.50027081293967 -7.521680046084166 5.782955470027457e-16)
(6.520989081175253 -4.705083866838415 -1.603532707406206e-17)
(-8.59791796493114 2.002338632591289 -5.76170246731641e-16)
(-28.89851693008197 -1.893734687777926 4.425906092493849e-16)
(0.8563794283424567 2.326519923138679 1.724956816345142e-15)
(14.04243347916518 22.61483038139418 -4.667456856677604e-16)
(6.821717402062909 6.903997532932729 1.142739011164239e-16)
(-20.7472670009914 -7.635198745829115 3.249741857258081e-16)
(4.278456288047152 -3.942956943947161 -1.628183617451199e-15)
(4.722043633578556 -3.389398026361315 -4.391120794259686e-16)
(-5.798004328648174 1.012075654951437 -3.07425526498321e-16)
(-30.63810970382795 -2.173959389722349 3.263150517361771e-16)
(12.69136774290801 -96.79820285235745 6.58288018335241e-16)
(-0.1461304535507397 -4.709280409861427 6.632105555196498e-16)
(14.03217130669302 22.33059536977991 1.214734928926872e-15)
(6.316749050244336 6.995134330938515 7.607715251630578e-16)
(-21.37526778782729 -7.567187126318829 9.623154843819346e-16)
(12.8791100262767 -11.51413477383245 1.364500676769831e-15)
(3.915122358157092 -3.503289532043243 6.214892204180459e-16)
(7.915893517585131 -5.894449902382683 -2.459364314915114e-16)
(-8.457995277694968 1.379051236927652 -1.716958375544285e-16)
(-31.09850103372414 -2.364334708145332 5.005181349363098e-16)
(64.49301277851879 -131.0299756913682 7.880626593555296e-16)
(16.70238993910712 -121.1853946108589 9.458810568945935e-16)
(-0.008561090637625186 -7.440927309692088 7.311448779670649e-16)
(13.71152050888886 21.53252681965994 6.07080572820681e-17)
(5.434727704024943 6.84450548357056 5.087692856194514e-16)
(-22.52342644965993 -7.497156779827476 3.046168621101771e-16)
(31.30126281106477 -28.44458655186814 1.048232847984052e-15)
(14.08526060468366 -12.7706409680634 3.489138918769056e-16)
(7.821211147081374 -7.182142126748077 -9.419327462976431e-16)
(7.927635544015229 -5.721340869929487 -2.220820810351745e-16)
(-7.199349579029287 0.5521255792074529 -2.233302496944681e-16)
(-32.25043794458244 -2.675889513945134 4.252998110984737e-16)
(73.24084774515626 -115.0096012286283 3.651131543754e-16)
(72.81761289860844 -149.3234837153196 1.2479758324909e-15)
(18.26522860906767 -123.0705006474247 9.850486796085344e-16)
(-0.1834630618365182 -12.11209496262962 7.309107527494649e-16)
(13.24545713232098 20.42840650972737 9.913737555711383e-16)
(4.563793777452326 6.807957546600032 7.26685776846905e-16)
(-23.23582385021571 -7.267041659804576 1.075861646478337e-15)
(62.99601656722458 -58.16598298618703 -9.509626259111546e-16)
(36.50526327593569 -33.26556688739966 -2.911928538846835e-16)
(19.83937207383618 -18.32990178552843 -1.342243263825808e-16)
(8.727288392148161 -7.990180933430899 2.604617482240944e-16)
(10.43211103796124 -7.82963492306964 -5.082759823101348e-16)
(-8.569629899794503 0.3769209310568819 -2.097872697843858e-16)
(-32.62629904590447 -2.940242785675361 6.252612875575825e-16)
(67.3371670619057 -104.8837307255523 1.137259548366769e-15)
(80.37901487651914 -128.3878664822371 1.517500783129805e-15)
(74.13031978549267 -151.5518954002163 1.377138369915223e-15)
(20.44864802531858 -129.0828606491316 1.063681339835473e-15)
(-0.2342272372985468 -17.36690436211873 7.867503521334192e-16)
(12.67870077997481 19.18670387235735 3.596219422692576e-16)
(3.303421148337823 6.577863114004275 6.47417918333111e-16)
(-24.31465321830618 -7.002221778505612 5.085460955594995e-16)
(106.230239099023 -98.99265534647893 -4.029644940620063e-15)
(75.10233468934466 -69.48713197728448 -1.22792736639473e-15)
(43.46800132007124 -40.1671819280097 -7.392625769402184e-16)
(21.67918564998835 -20.24987996047641 -3.76645239801494e-17)
(12.35166098786985 -11.38509529104577 -9.010668803156811e-16)
(11.23195430212469 -8.361035998307491 -1.153011045649585e-16)
(-8.033119125850339 -0.4815890428333808 -9.119566800234369e-17)
(-33.24646679601025 -3.283279760341646 5.279971588602154e-16)
(62.77776945022154 -97.00004997468479 2.315476094979983e-15)
(73.53653454337834 -115.1187159896559 1.14914675565371e-15)
(81.98797077473662 -130.2008328121838 9.843240318550311e-16)
(77.47581376519454 -157.877985950338 1.429672283077944e-15)
(22.77643674902231 -134.0154956321413 1.189899962686593e-15)
(-0.1459938476618998 -22.98633006988043 8.560444368659454e-16)
(11.96795368483756 17.4276371008546 7.066932990421617e-16)
(1.892533623760345 6.326084000275627 7.755804030035535e-16)
(-25.09528394488416 -6.598541999203827 1.205913879197411e-15)
(141.0543463531094 -134.9856940958085 -9.312566570756187e-16)
(125.2826690351281 -117.8008556533852 -1.926195352484248e-15)
(82.52146807929715 -77.0864313518217 -1.544270982570354e-15)
(47.95435778454179 -44.7561694864513 -3.286046364108718e-16)
(27.04222185289524 -25.62646117272217 -2.814466290080397e-16)
(14.3015054768128 -13.46975811787701 2.350033995694481e-16)
(14.22746706582657 -10.86819155719663 -6.199250946847749e-16)
(-8.535402057097976 -1.187130550707724 -2.193772165146089e-16)
(-33.34530361647447 -3.61937995357762 7.46736588400852e-16)
(58.20690236125556 -89.83300960153289 1.172401757357794e-15)
(68.51679319341882 -105.8079993472565 7.572108051760566e-16)
(75.29213328391202 -117.9233247690707 1.476707953455563e-15)
(85.17599504028269 -135.850722749661 1.499500749705488e-15)
(79.10114377258 -160.5133138712891 1.463927438285266e-15)
(25.34360353820632 -138.9835997816698 1.303394595665419e-15)
(0.1448168421594831 -29.49595601429884 8.960056400774783e-16)
(11.18102217415789 15.38438496392394 5.029109505067114e-16)
(0.02637972943611598 5.820746482221262 7.853413365700879e-16)
(-26.07226041057218 -6.149064590855425 7.499542811722359e-16)
(161.1308288462272 -158.4712124528933 -1.248823745184336e-15)
(167.5061655042574 -160.5637959036246 -2.182561064912262e-15)
(132.8615193460132 -125.5805323847614 -1.986815441797283e-15)
(90.54927164610909 -85.26834361134594 -1.509235448973402e-15)
(55.22887349599318 -52.11129284510918 -9.686756326784837e-16)
(30.80618356775205 -29.58573010844385 -3.686973412219221e-16)
(18.97925511977181 -17.78218593540514 -1.040207444783948e-15)
(16.16339507490215 -12.57522585207793 -1.305766248377601e-16)
(-8.054198444212245 -2.459820257042552 -3.820199186042522e-17)
(-33.46969462321069 -4.047965885475051 6.496187916133398e-16)
(54.75734392408597 -84.46396005554595 -1.699662351757192e-16)
(64.14989823418998 -99.00147265776663 5.214232836167211e-16)
(70.25580358530766 -108.5905476405196 1.6006577996993e-15)
(78.24307785676136 -122.746276973991 1.236788105143802e-15)
(86.60909150397576 -138.3073228074661 1.267367030049396e-15)
(81.77063121084213 -165.3898652186067 1.684677258573835e-15)
(28.50805250803813 -144.0967394523534 1.396690688770705e-15)
(0.7550156858208702 -36.05255349904286 9.7361863481001e-16)
(10.06317210740521 12.62939229302769 6.689811933171511e-16)
(-2.14439778908792 5.217667528146706 9.238492886642861e-16)
(-27.0474644700809 -5.595590522849361 1.302440211298093e-15)
(171.8098161052267 -173.7050252743585 6.333627243393821e-16)
(188.527858667567 -186.0652346112513 -3.167582079263402e-15)
(172.9298700048555 -166.1645721232738 -1.843550482939884e-15)
(142.6061515309667 -135.4638995945653 -2.060042838293162e-15)
(100.4351308416213 -95.41880678360842 -1.657719057021007e-15)
(62.24431539452311 -59.42050667735669 -7.641159121073806e-16)
(37.78177943062438 -36.72095448708142 -4.937364283794839e-16)
(23.00201329550254 -21.88790292557731 6.426648887041647e-17)
(20.14003380652844 -16.10735355610046 -7.573629431316502e-16)
(-7.534797984305111 -3.958839593805857 -1.642543079542264e-16)
(-33.29280267090493 -4.528768313352537 8.711674261606208e-16)
(52.10376477114843 -80.6661067120733 2.034042441777113e-15)
(60.43339429340983 -93.33138791180291 1.431947231513894e-15)
(65.84324725747213 -101.6858382657866 1.256345103778816e-15)
(73.01947425803505 -112.9951496907083 1.006945779192765e-15)
(79.8550257469432 -125.4787783913628 1.46226407398502e-15)
(89.22401830581609 -142.9708409333153 1.706256842231684e-15)
(83.66539928054891 -168.5486841171834 1.6878842324018e-15)
(31.72127468370068 -148.948495351287 1.551518855794701e-15)
(1.569317829352205 -44.45580806771925 9.848679979494694e-16)
(8.863462577610028 9.48422024158435 6.161337710058583e-16)
(-4.899910073407996 4.207386121522607 1.073935500381084e-15)
(-28.04980697211796 -5.022259869627003 9.456432217866022e-16)
(174.2480095678177 -184.7801675852477 -8.013353170081378e-15)
(195.786242635058 -201.3444077730887 -4.312129042241447e-15)
(190.4196793269953 -187.4767775745006 -2.215447103163977e-15)
(183.1340039871491 -176.4104693151473 -2.106079760224918e-15)
(154.0921958326593 -147.1892867805254 -1.915099444791083e-15)
(111.8224210818487 -107.2498563812398 -1.642277700954064e-15)
(72.56539544729377 -70.09143028046653 -1.164085401653384e-15)
(44.68807689566101 -44.00635787258087 -6.072081802589763e-16)
(29.87044046924876 -28.81117442247054 -9.94439877226277e-16)
(23.96345884082495 -19.76832662478558 -1.421406054481213e-16)
(-6.169380167399445 -6.151175082130162 -7.702900833301443e-17)
(-32.92061215089367 -5.106779166474853 7.89969166257284e-16)
(49.39419779703098 -76.91647614666276 3.564419917129676e-15)
(57.2071522985389 -88.62949402590067 4.238457606658823e-16)
(62.28906292161509 -96.24612241399954 6.753849760730341e-16)
(68.59420532032996 -106.0237815253768 8.34589734790946e-16)
(74.7185774303215 -115.7457100774062 1.546766779591455e-15)
(82.38081387904982 -129.6911258720378 1.613917177782858e-15)
(90.85591328642906 -145.9026031850465 1.55033999798457e-15)
(86.09780003714641 -172.8965262758263 1.926170595132233e-15)
(35.18511577260205 -153.3392604733845 1.640971182144496e-15)
(2.999024575947967 -51.65471711611826 1.081733235193071e-15)
(7.231935477845037 5.312584987620765 7.002600467400195e-16)
(-7.820333610369331 3.114603101799515 1.042301152861941e-15)
(-29.08807608124765 -4.437997682291853 1.476536234286995e-15)
(162.0062257285717 -189.9998828671417 -1.597390354527456e-14)
(195.4760751559991 -207.3859817881155 -3.849498577522207e-15)
(195.5503996724566 -197.7227243486173 -1.871559134505027e-15)
(200.022962219026 -197.3599107242915 -2.592611664423801e-15)
(192.0662239865681 -185.5758785592059 -2.116267922223069e-15)
(167.2310061783031 -160.577863808537 -2.070651287703778e-15)
(125.9617037754433 -122.0095403426722 -1.79632650081586e-15)
(84.45247794777273 -82.55646913619979 -1.220295499087026e-15)
(55.36847528507325 -55.16282277470598 -6.8346356976923e-16)
(37.78233502931229 -37.00204324172039 -2.49178256066227e-16)
(30.06770133700014 -25.6493829948369 -7.944648824193861e-16)
(-4.314369453115668 -9.004585079188923 -9.057685523552025e-17)
(-32.19747064850029 -5.869991896316741 9.73130056553412e-16)
(47.050646821098 -73.25634499270318 -1.985357142305959e-16)
(54.48602266105677 -84.70389133643768 -1.268649505127644e-15)
(59.30826324510681 -91.92720403453269 1.752252481701649e-15)
(64.88318813985974 -100.3198974570729 1.548290382620136e-15)
(70.33772453953542 -108.8057898108765 1.489264130659239e-15)
(77.20349898859408 -119.7763107635588 1.282335071960371e-15)
(84.2235172344004 -132.8738656812696 1.509517330103089e-15)
(93.22592579796169 -150.2230137829838 1.912225797264501e-15)
(88.14902853683114 -176.0511710315002 1.943909527887372e-15)
(39.38633755039968 -158.7812184524735 1.814733807317237e-15)
(4.801417738830433 -60.75935610809727 1.22206681067154e-15)
(5.340944201251655 0.4713358815108765 9.560094480197109e-16)
(-11.39736846901693 1.65116872649678 1.162264344748435e-15)
(-29.77264486303682 -3.745331810405001 1.230135741183456e-15)
(136.9097450717282 -187.2652348262443 -2.173359997151927e-14)
(178.8309046536244 -208.0263866864656 -2.466648527812064e-16)
(192.2513494202601 -203.6740419325737 -5.08978503642155e-15)
(204.9547524493537 -208.7849135521915 -3.252175667456732e-15)
(204.542043115943 -201.7347130606497 -2.630967433224307e-15)
(202.3435962795519 -195.7900429819785 -1.900473012513346e-15)
(181.1095254976237 -174.8445864094198 -1.826311855100653e-15)
(141.3189674450158 -138.211779707019 -1.589113223986187e-15)
(100.5462280980005 -99.50280873184313 -1.278267449942345e-15)
(68.88462682316135 -69.43926591406692 -8.554775974501344e-16)
(49.88619570240822 -49.50504454650486 -7.612841975158256e-16)
(38.0185212234534 -33.64926220661533 -3.045994059653825e-16)
(-1.027590012642343 -12.98575981427794 -7.787402975181531e-17)
(-30.80318966449245 -6.821741247075837 9.382758664883156e-16)
(44.84000127124063 -70.23367858110444 3.779059269356817e-16)
(52.008513873635 -81.01785746014068 1.584379763600362e-15)
(56.5597715191992 -87.97939207673804 3.18931793122859e-15)
(61.66373204802543 -95.61115529390477 6.292553431623828e-16)
(66.75644352931002 -103.2841892365707 9.78022137952113e-16)
(72.77973883224026 -112.6932183957082 1.169481058625763e-15)
(79.14364155626932 -122.9664935896416 1.734188731990819e-15)
(86.67550104463366 -137.1255978850623 1.907753069234472e-15)
(94.98006313208273 -153.6728078518506 1.843617570443706e-15)
(90.61316137137794 -180.2356107514082 2.225051927418693e-15)
(43.72134095112076 -163.8495666754424 1.945081743294415e-15)
(7.43110174093235 -69.60479329361117 1.331910363938831e-15)
(3.428645119824818 -5.138220881274743 7.97731157592245e-16)
(-14.89301507660855 0.2192466766029321 1.28791433015299e-15)
(-30.48539027134616 -3.159149356574382 1.62838327895666e-15)
(104.107280361889 -161.8371052854602 -8.704166598420803e-16)
(152.791135897479 -202.1208010880144 7.101662084685384e-15)
(174.7384273401973 -205.7751622534958 -7.862993153975909e-15)
(202.32319724923 -214.1232407395117 -1.345119035119049e-15)
(206.2141765699232 -208.9276923230773 -2.34242068141181e-15)
(212.1506965876907 -209.5687199469419 -1.810510896179815e-15)
(212.4716845189729 -205.7351827436268 -2.051559551589631e-15)
(195.608619884786 -189.7590452340823 -1.697251571776962e-15)
(159.7704004737582 -157.6987408105749 -1.58252893131433e-15)
(119.5208739410967 -119.7770381618243 -1.292066893752904e-15)
(86.57906542141491 -88.35560177747486 -1.001587894256618e-15)
(66.48478143087425 -66.91955180816079 -7.454403087516072e-16)
(49.35770938770499 -45.38482387597025 -6.110034914022975e-16)
(4.840497092487126 -18.78946088328684 -1.427865845424126e-16)
(-28.61871125389256 -8.144683337333188 1.033327631342295e-15)
(41.76228094992176 -65.93653250236608 1.021908251915007e-15)
(49.44194244446319 -77.38153700681704 2.033600896418719e-15)
(53.9357868594678 -84.0594532368152 2.014124693683718e-16)
(58.82429316084042 -91.53963094746777 -7.536255741240691e-16)
(63.64906226493984 -98.7598290225795 1.996871545373538e-15)
(69.02771277774524 -106.9033110344102 1.581327381855728e-15)
(74.7829291086409 -115.9487898712478 1.760511097752308e-15)
(81.61195173937902 -127.0625222817005 1.492515112512158e-15)
(88.69642141316078 -140.7122266214917 1.734519620541334e-15)
(97.18778896095846 -157.9600381657082 2.25356268737245e-15)
(92.73327585205975 -183.5503979184342 2.269711792140439e-15)
(48.54667518174949 -169.3316682927952 2.159171035410801e-15)
(10.91560418469903 -79.13790621085036 1.480671099207404e-15)
(1.505329818701174 -11.98716582469708 7.806139491625271e-16)
(-18.28398344434234 -1.265875948484282 1.49442607962065e-15)
(-30.95156785337126 -2.673375011499907 1.478955086342376e-15)
(87.41128396967656 -136.5330020158464 -1.047130398853438e-14)
(112.9210203960665 -171.0423410580933 7.383756855292186e-16)
(149.7173986035796 -199.8855871051393 -1.210923387550419e-14)
(183.5211358016597 -214.5301045279 -1.070430097282977e-15)
(200.9389690126931 -213.1897789891563 -4.205613842048644e-15)
(213.9722779970172 -217.3676556737301 -2.828957688566716e-15)
(218.2296043181938 -215.7330796031801 -2.578989200773776e-15)
(221.167352760317 -214.6075034897285 -1.39898842801923e-15)
(209.9613051807285 -204.4842048110325 -1.533509393967295e-15)
(179.3817933654355 -178.5656043535991 -1.405283112414221e-15)
(141.7883649894116 -143.9854768773127 -1.266101965108328e-15)
(109.5566638307595 -113.147862605652 -1.014134242744388e-15)
(88.34653669025087 -90.38976368835833 -7.822121431277685e-16)
(65.19347519421176 -62.14486872571153 -6.909167181002758e-16)
(14.33847883011001 -27.33378028688953 -2.077170823436908e-16)
(-24.93603568976508 -10.1518153095916 1.007104170205866e-15)
(38.75103400633235 -61.81791587244282 -4.717955634014488e-15)
(46.2103037748128 -72.81386261913468 1.230078911461884e-15)
(51.3250653896338 -80.34849188506666 -7.561430848537488e-17)
(56.27764259713724 -87.72691180682786 1.618217027487756e-15)
(60.83819071753956 -94.71113564045874 3.223245030028066e-15)
(65.75767314430725 -102.0925624080737 6.560979896836317e-16)
(71.12300214986973 -110.2574086661672 1.454696448487968e-15)
(77.16552275391098 -119.8196156619738 1.46168959018855e-15)
(83.75726915089784 -130.6900912958887 2.047749275044624e-15)
(91.13690365419953 -145.0886315926662 2.200514772513839e-15)
(99.03553633258339 -161.7771330640986 2.193880622969017e-15)
(95.15067417928921 -187.4567055561303 2.622779321323616e-15)
(53.70458555259968 -174.9222942182125 2.334442296197297e-15)
(14.81859456877952 -89.92764557722307 1.639796876182259e-15)
(0.2173704626874351 -18.86403101017892 1.01889581288972e-15)
(-21.73664807609202 -2.828093987343482 1.623809228357295e-15)
(-30.95665591280357 -2.252610196489655 1.833197542142382e-15)
(76.32755818610312 -118.6936768547645 1.679701884046003e-14)
(92.44900892483111 -144.7807020620949 7.107126995060941e-15)
(112.0861169854791 -170.3967931529126 1.111691170180637e-16)
(155.9554977902734 -207.4324147436163 3.962624628068907e-15)
(181.2637245406891 -213.4056057518385 -3.745298397167355e-15)
(209.6223316919222 -221.6839860343909 -1.408582009544583e-15)
(216.4730345347931 -219.7363035569178 -2.276032486161039e-15)
(224.327359489129 -221.9368173425506 -1.005473228558907e-15)
(229.2419549505401 -222.8543383296492 -1.505678869620386e-15)
(223.215389457059 -218.0517499666396 -1.263491991103572e-15)
(199.0575697383316 -199.5571816376764 -1.225247492717816e-15)
(166.8446335986788 -171.4714051608665 -1.265321403664346e-15)
(136.9948897965684 -143.2936360449693 -1.042982431585999e-15)
(115.980339506421 -120.9598671989682 -8.886805637744622e-16)
(88.3072622762284 -86.97470575680003 -7.684787867552994e-16)
(31.06313899030815 -40.97750634584462 -3.136280462967094e-16)
(-18.31280137284961 -13.56131024714886 1.001573813189593e-15)
(38.54440564897865 -62.5440456892812 -1.325254150253106e-14)
(42.79717693596335 -68.27393749914846 -2.641575529705486e-16)
(48.12255206526299 -75.86512652181956 -4.637518590376391e-16)
(53.57567266271352 -83.89749063137803 1.585287107511778e-15)
(58.1593859751647 -90.68232880291335 3.72840459320447e-16)
(62.89589712604199 -97.96226415440135 -3.553916162984905e-16)
(67.93229835745774 -105.5616931154588 2.299211115194571e-15)
(73.39641064155479 -113.9174805027385 1.65424953049351e-15)
(79.41982117462193 -123.5216936639014 2.009367645410172e-15)
(86.29061647655318 -134.98062378167 1.737285264826828e-15)
(93.31110229023666 -149.105814719805 2.161980899943987e-15)
(101.1328569514227 -166.2000944154671 2.600101009760093e-15)
(97.34648082201247 -190.8409001897451 2.698093047339931e-15)
(59.00758050730357 -180.5981934559359 2.594685686520937e-15)
(19.28761346956839 -101.2229082863546 1.843320813950329e-15)
(-0.5002042225731465 -26.5975352684406 1.19206797224131e-15)
(-24.68419622370604 -4.434742373100094 1.817828110871845e-15)
(-30.31991494131475 -1.93221736712183 1.713499324918077e-15)
(70.62422725870758 -109.1541663707001 1.37621601004457e-14)
(82.71011557042223 -128.7528441783832 1.222988714502567e-16)
(92.77272281994259 -145.2122728773298 -6.343252275886373e-15)
(115.6068387446125 -175.5816170538743 -2.316471712235347e-16)
(154.6723733481825 -206.3305387386222 -4.75550074784273e-15)
(188.440480895214 -221.0196477140176 -1.800968097325678e-15)
(209.2041464604366 -222.2353042199677 -3.418158472705831e-15)
(222.6325587893249 -226.2286897753964 -1.437314389005502e-15)
(229.2642724816288 -226.9872244930762 -1.750436382320172e-15)
(236.3110098876039 -229.9015116045845 -9.60182906799117e-16)
(232.694201477857 -227.745770186019 -9.269103565520922e-16)
(217.0216840897038 -218.4135094317962 -9.125125320983176e-16)
(191.026546774393 -198.2984998618628 -8.800715888775672e-16)
(167.2220128592568 -177.0096307771674 -8.739657400612377e-16)
(147.9354457732742 -157.4816530257083 -7.613397360347588e-16)
(117.7622283880779 -119.5504882444155 -7.188639039782532e-16)
(56.50286829094738 -61.39042626099477 -3.895109961939322e-16)
(-6.828111765672078 -19.39702695591813 8.548441578526667e-16)
(39.88736766770825 -63.57092250986976 4.566669332317848e-15)
(42.48161171761305 -68.80772685800029 -8.629724736609807e-17)
(44.85888953890498 -71.57236123983277 -3.14236979595801e-15)
(50.17873973010544 -79.09393749106157 1.229494326257613e-15)
(55.36197825256436 -86.72896655245695 1.149427994685115e-16)
(60.22919123496509 -93.9776880994704 1.738089268552043e-15)
(65.06535773479314 -101.4109374617535 3.002445814652262e-15)
(70.08949440933476 -109.021823476225 7.627887630296541e-16)
(75.73524847302681 -117.7191201143082 1.873471744261857e-15)
(81.9025168472305 -127.6479658926673 1.844477501686089e-15)
(88.64503121053775 -139.0657743870014 2.372774337645332e-15)
(95.78785568613517 -153.7169239036188 2.497098834163955e-15)
(102.9714237445788 -170.2896449180875 2.661583964678001e-15)
(99.66780074194124 -194.5169310386243 3.101659317214105e-15)
(64.57270052949679 -186.5092406281235 2.837621989146978e-15)
(24.52104633816871 -113.7196023655556 2.098735616923492e-15)
(-0.9297970030039568 -36.41539713795656 1.448783791336863e-15)
(-27.13363629503136 -6.453252831706118 1.861386666653387e-15)
(-29.09098704918749 -1.9134515823814 1.9720754749413e-15)
(66.45328402808292 -102.0780732061384 5.203160083799341e-15)
(76.98751228693813 -118.9692148154737 -2.442703788362844e-15)
(82.80418339530421 -128.8710687076487 8.292062366714599e-15)
(95.61889610129045 -149.627557003761 7.09778664229845e-15)
(115.6402336471174 -175.6548239941254 1.196682013542389e-15)
(159.4757828291661 -212.329208408108 2.190326616316401e-15)
(187.2385699667543 -220.5216430608968 -1.151610959982052e-15)
(216.0988865006192 -229.3703569678711 -9.418645741127526e-16)
(225.7776515710925 -229.4969588346609 -1.511889747642404e-15)
(234.8894382201193 -232.7158845988781 -1.062234369536026e-15)
(241.0470486416845 -234.7173113612112 -7.339870495712772e-16)
(240.2229293044516 -235.3421285821732 -4.235065363417794e-16)
(229.4796557557286 -231.3235128077488 -3.593697257902096e-16)
(211.64974076946 -220.9810866424063 -5.024052363329469e-16)
(194.3350914778948 -207.7121002816794 -4.594670259162413e-16)
(178.8744132434784 -193.6778187479752 -4.264853413363338e-16)
(149.0564416593677 -156.6901496885432 -4.801311648445111e-16)
(86.59518619539043 -87.34002342519028 -4.035853300576674e-16)
(8.214581417316113 -28.81995383550643 6.908921134660399e-16)
(40.47017178950185 -62.93576056376894 5.034899937988961e-15)
(44.36644522061398 -70.65786701907285 5.057663012878563e-15)
(44.40413832646185 -71.92278547475637 -2.474910410905899e-15)
(46.78979604796122 -74.6345427369171 7.508490504112768e-16)
(52.04234540581721 -82.06124037500591 -7.315485305126382e-16)
(57.42437568673614 -89.97176031842203 1.505038829071456e-15)
(62.34615048353061 -97.32296721032728 6.846508268865246e-16)
(67.17871112142488 -104.7796550837411 5.653153907539191e-17)
(72.49038564483347 -112.8898071598733 2.632220185278647e-15)
(78.1314925645114 -121.6358101097511 1.75549339918944e-15)
(84.38342759079673 -131.8178365689992 2.264635388354286e-15)
(91.23659979051274 -143.6198778939116 2.290752408856627e-15)
(98.05653826384778 -158.0968602886208 2.620582597848082e-15)
(105.0032722278013 -174.9054804947291 3.065864694563688e-15)
(101.7939123926445 -197.8052549239665 3.250746063925611e-15)
(70.02584405881768 -192.3661969393459 3.151028366318163e-15)
(30.37521459488461 -126.4560728059367 2.376105836759777e-15)
(-1.342769454152922 -48.65247023569869 1.668354686112586e-15)
(-28.92462114350781 -9.115744581318717 2.013116255668353e-15)
(-24.78198912389276 -2.142598325548195 1.779339652046823e-15)
(63.93814521694912 -97.11387179490418 1.290117732614414e-14)
(72.44783943266034 -111.0699680427036 -5.5836248595815e-15)
(77.23039990728859 -119.335135872604 6.956126608279043e-15)
(86.03956020952135 -133.8838970033734 1.103075392453727e-15)
(96.21283367889279 -150.5037523075787 -4.419288603870073e-15)
(118.3823526987972 -179.7387761579616 -1.839898275338626e-15)
(159.0326287406038 -212.0715410997958 -5.010744751624824e-15)
(193.0852289315084 -226.9850804109943 -3.410904788988892e-15)
(217.510639084219 -231.2727862205012 -1.401445799959354e-15)
(231.2615548056188 -235.239397801901 -7.453120619219692e-16)
(238.541794414494 -236.5040112500245 -3.425507668883218e-16)
(245.5889797727587 -239.2742047434247 -3.637206394230472e-16)
(245.1297923110234 -240.1309455836007 1.023767629197319e-16)
(237.1993187412132 -239.5349797518707 -4.128348296751808e-17)
(224.8822605977952 -235.2579348671077 1.173017581754923e-17)
(213.5778495768113 -229.5197486303131 4.65395130885119e-17)
(203.4221603585081 -222.4405344479239 3.941310171793951e-17)
(176.8031487789783 -191.9310618143398 -1.224416562250659e-16)
(118.8699675560896 -119.0859961293485 -2.936408531894828e-16)
(32.98860849304636 -43.42460377938993 4.842097038832372e-16)
(38.02336736328932 -58.25015755328705 -8.797511648175064e-15)
(44.74326013100759 -69.53372685393167 1.708314039670734e-15)
(45.94152153196013 -73.15738019928645 9.329906942477043e-16)
(46.37069893001357 -75.09044117354175 -2.45073081332197e-15)
(48.6627095625387 -77.61422049383228 -2.615827393422031e-15)
(53.96756324526253 -85.10436185336408 1.297675464282671e-15)
(59.44317307878801 -93.18496235781205 4.121397284348047e-16)
(64.46064387117143 -100.694144908372 1.742157871003988e-15)
(69.54698563672426 -108.5804599349824 2.950879481239821e-15)
(74.80927889902733 -116.6644191278538 1.00049289481494e-15)
(80.69685000511767 -125.8892936796806 2.331117765356775e-15)
(86.97364364345503 -136.2199380386819 2.236378062336097e-15)
(93.71240586879699 -148.0705190627607 2.711194579362379e-15)
(100.5859060167949 -163.0133475831961 2.966779146847706e-15)
(106.828292548421 -179.2728675321048 3.235406296464884e-15)
(103.9596156238419 -201.3565035765158 3.650904296500868e-15)
(75.24943382140277 -197.4883539760921 3.470843710452773e-15)
(36.76935702630686 -138.7105652607913 2.717673065614043e-15)
(-0.8013974311185124 -61.93799569896792 1.941039675411227e-15)
(-30.01037387263758 -13.09632728497806 2.210766322120806e-15)
(-17.91118236760823 -3.866263331764521 1.685977986128564e-15)
(63.20787751525462 -94.62015280111008 -3.676853072968969e-17)
(69.05224972223579 -104.7497645589744 -3.032498925579263e-15)
(72.98017423695056 -111.9202426110571 7.324323352778873e-15)
(80.40590325714342 -124.2440108929324 -3.280333507084306e-15)
(86.58281651652442 -134.7254330456744 5.041636807770649e-15)
(98.66722376014307 -154.2836279070235 5.15309381999699e-15)
(118.9644991519839 -180.5434685796802 3.387250540408147e-15)
(162.8074589902101 -217.0405371734672 2.422510458438305e-15)
(192.8958980890179 -227.2813873409021 1.035802908393605e-15)
(222.6972640766733 -236.7930293345043 -7.403680164981222e-16)
(234.1902884050186 -238.3530827760019 -3.039173467059552e-16)
(242.9499698776673 -241.0609453233227 -4.126996239122771e-16)
(248.9652447989657 -242.7367752638237 3.293412711559945e-16)
(249.2347462732582 -244.1097585588445 1.4222931456556e-16)
(242.029345699843 -244.3269338182575 4.192639472931542e-16)
(232.0157156415804 -242.7178822942504 4.667288067198544e-16)
(223.6258970941526 -240.6911902782514 4.712390451512392e-16)
(216.0739498734527 -237.9023320792245 5.237795373598875e-16)
(198.6407405839455 -220.1179912905589 3.662086910580369e-16)
(147.0808169542969 -151.8497316949049 -6.506873111920091e-17)
(61.679137241245 -61.92513682078857 3.235204473938313e-16)
(35.28017241927154 -55.53608245367798 6.083521207226517e-15)
(41.32923506893636 -63.26860937213333 5.415908368785708e-15)
(46.2968110056539 -71.943219573881 2.74864410976397e-15)
(48.06990270589799 -76.52352404916552 4.626815727988972e-15)
(48.10660035981769 -77.87770798517226 -7.677462323048048e-16)
(50.45936396369667 -80.49264863799267 1.258183546280108e-15)
(55.96038404864333 -88.28930242303448 -4.461480043094991e-16)
(61.53620694194966 -96.52726628958821 1.590191023802738e-15)
(66.77543566987167 -104.3976116567044 1.04110071177367e-15)
(71.84490765908788 -112.2845425896162 6.115962980671207e-16)
(77.42648187529446 -120.9333584807141 2.878099457042477e-15)
(83.24737441002786 -130.1533418728892 2.051360428954103e-15)
(89.60494099041964 -140.7725167171974 2.684305651779371e-15)
(96.42568443408938 -153.0108049458084 2.81272149307345e-15)