/*--------------------------------*- C++ -*----------------------------------*\
| =========                 |                                                 |
| \\      /  F ield         | OpenFOAM: The Open Source CFD Toolbox           |
|  \\    /   O peration     | Version:  v1912                                 |
|   \\  /    A nd           | Website:  www.openfoam.com                      |
|    \\/     M anipulation  |                                                 |
\*---------------------------------------------------------------------------*/
FoamFile
{
    version     2.0;
    format      ascii;
    class       surfaceScalarField;
    location    "0.02";
    object      phi;
}
// * * * * * * * * * * * * * * * * * * * * * * * * * * * * * * * * * * * * * //

dimensions      [1 0 -1 0 0 0 0];
oriented        oriented;


internalField   nonuniform List<scalar> 
31936
(
0.00525002
2.49451e-19
0.00525002
1.7991e-18
0.00525002
4.13776e-19
0.00525002
9.88398e-20
0.00525002
7.18284e-19
0.00525002
5.02629e-18
0.00525002
4.9111e-18
0.00525002
3.78454e-18
0.00525002
8.88961e-19
0.00525002
2.10149e-18
0.00525002
3.50163e-18
0.00525002
5.56501e-18
0.00525002
2.10742e-18
0.00525002
-3.01798e-18
0.00525002
-2.82316e-18
0.00525002
-1.5723e-20
0.00525002
4.82385e-19
0.00525002
2.22177e-18
0.00525002
5.79201e-18
0.00525002
4.18942e-18
0.00525002
2.01933e-18
0.00525002
-2.69695e-18
0.00525002
-4.12929e-18
0.00525002
-1.04863e-18
0.00525002
1.3832e-18
0.00525002
4.53332e-18
0.00525002
6.69664e-18
0.00525002
7.40646e-18
0.00525002
1.32069e-17
0.00525002
1.30985e-17
0.00525002
1.50026e-17
0.00525002
1.05473e-17
0.00525002
1.2404e-17
0.00525002
4.88907e-18
0.00525002
6.27143e-18
0.00525002
1.05964e-17
0.00525002
7.9943e-18
0.00525002
3.0079e-18
0.00525002
2.68848e-18
0.00525002
7.31498e-18
0.00525002
-4.77727e-18
0.00525002
4.48453e-17
0.00525002
-4.72799e-15
0.00525002
-7.56535e-14
0.00525002
2.07425e-12
0.00524983
6.37101e-10
0.00519068
1.6778e-08
-4.6407e-08
0.00525002
6.49992e-19
0.00525002
1.97189e-18
0.00525002
2.43183e-18
0.00525002
3.38559e-18
0.00525002
-1.09818e-18
0.00525002
-4.92656e-19
0.00525002
-5.67004e-18
0.00525002
-6.71274e-18
0.00525002
-1.31311e-18
0.00525002
-8.22469e-19
0.00525002
-2.15993e-18
0.00525002
-3.81673e-18
0.00525002
-3.70662e-18
0.00525002
-1.93335e-18
0.00525002
-2.89685e-19
0.00525002
3.23905e-18
0.00525002
6.01055e-18
0.00525002
1.35017e-17
0.00525002
1.28173e-17
0.00525002
9.48677e-18
0.00525002
5.83945e-18
0.00525002
1.2642e-18
0.00525002
2.53263e-18
0.00525002
3.56855e-18
0.00525002
8.85658e-18
0.00525002
7.26415e-18
0.00525002
1.0449e-17
0.00525002
1.20956e-17
0.00525002
1.21227e-17
0.00525002
1.75336e-17
0.00525002
1.96918e-17
0.00525002
1.45961e-17
0.00525002
1.1086e-17
0.00525002
8.71427e-18
0.00525002
5.74797e-18
0.00525002
9.04292e-18
0.00525002
7.97397e-18
0.00525002
6.9084e-18
0.00525002
5.8513e-18
0.00525002
1.03338e-18
0.00525002
6.94228e-18
0.00525002
-4.08134e-17
0.00525002
-8.56476e-15
0.00525002
-1.59742e-13
0.00525002
-7.01854e-13
0.00524983
-3.75076e-10
0.00519055
-2.50296e-08
1.09498e-07
0.00525002
-3.66818e-19
0.00525002
-2.80622e-18
0.00525002
-8.64821e-19
0.00525002
-6.17487e-19
0.00525002
-7.78762e-18
0.00525002
-4.5384e-18
0.00525002
-1.20914e-18
0.00525002
-7.08628e-18
0.00525002
-1.00356e-17
0.00525002
-1.50094e-17
0.00525002
-1.30545e-17
0.00525002
-1.42844e-17
0.00525002
-1.02152e-17
0.00525002
-3.69391e-18
0.00525002
-1.97697e-18
0.00525002
-6.54926e-18
0.00525002
-3.92007e-18
0.00525002
4.5113e-18
0.00525002
2.87144e-19
0.00525002
-3.66723e-18
0.00525002
-7.54706e-18
0.00525002
-5.29565e-18
0.00525002
3.02285e-19
0.00525002
-1.63308e-18
0.00525002
-1.97189e-18
0.00525002
-4.67308e-18
0.00525002
-4.52061e-18
0.00525002
-7.26648e-19
0.00525002
-4.5257e-18
0.00525002
-7.24891e-18
0.00525002
-2.86382e-18
0.00525002
-7.23027e-18
0.00525002
-8.15862e-18
0.00525002
-8.13152e-18
0.00525002
-6.85758e-18
0.00525002
-8.2789e-18
0.00525002
-5.45828e-18
0.00525002
3.14419e-18
0.00525002
1.0266e-18
0.00525002
-4.37069e-18
0.00525002
-1.4203e-17
0.00525002
-1.15359e-16
0.00525002
-7.68005e-15
0.00525002
-1.70711e-13
0.00525002
-1.16557e-12
0.00524983
2.54057e-12
0.00519076
-1.53526e-07
1.4166e-07
0.00525002
-6.36863e-19
0.00525002
-4.77896e-18
0.00525002
-8.72444e-19
0.00525002
8.81368e-19
0.00525002
-7.14388e-18
0.00525002
7.81303e-18
0.00525002
3.48808e-18
0.00525002
-4.05051e-18
0.00525002
-9.04631e-18
0.00525002
-4.40457e-20
0.00525002
4.80776e-18
0.00525002
-6.83047e-18
0.00525002
-2.65968e-18
0.00525002
-8.58468e-19
0.00525002
-4.57059e-18
0.00525002
6.20536e-18
0.00525002
3.42582e-18
0.00525002
3.07261e-18
0.00525002
6.48319e-18
0.00525002
1.34306e-17
0.00525002
3.32037e-19
0.00525002
-2.58176e-18
0.00525002
-3.50672e-19
0.00525002
-3.9387e-18
0.00525002
9.31344e-18
0.00525002
-9.82558e-18
0.00525002
1.10639e-17
0.00525002
7.68767e-18
0.00525002
-4.20128e-18
0.00525002
7.34208e-18
0.00525002
-1.03474e-17
0.00525002
-1.00966e-17
0.00525002
-1.01034e-17
0.00525002
1.08081e-17
0.00525002
9.3864e-18
0.00525002
-1.03643e-17
0.00525002
9.80017e-18
0.00525002
-6.73603e-19
0.00525002
-9.23435e-18
0.00525002
-6.20706e-18
0.00525002
-1.1357e-17
0.00525002
-3.73643e-17
0.00525002
-5.28874e-15
0.00525002
-9.88393e-14
0.00525002
-3.10236e-13
0.00524983
2.65974e-10
0.00519045
-2.53694e-09
1.06775e-08
0.00525002
1.69407e-18
0.00525002
4.30801e-18
0.00525002
5.37697e-18
0.00525002
7.55892e-18
0.00525002
6.48827e-18
0.00525002
1.05269e-17
0.00525002
-1.97867e-18
0.00525002
-1.87279e-18
0.00525002
-3.2255e-18
0.00525002
2.62496e-18
0.00525002
4.18773e-18
0.00525002
2.01933e-18
0.00525002
1.86517e-18
0.00525002
6.04104e-18
0.00525002
5.20756e-18
0.00525002
1.49586e-17
0.00525002
1.27766e-17
0.00525002
1.46571e-17
0.00525002
1.46943e-17
0.00525002
1.66561e-17
0.00525002
1.31798e-17
0.00525002
1.29359e-17
0.00525002
1.38676e-17
0.00525002
1.6839e-17
0.00525002
1.24141e-17
0.00525002
1.21837e-17
0.00525002
1.33967e-17
0.00525002
9.70361e-18
0.00525002
4.85011e-18
0.00525002
8.64312e-18
0.00525002
9.79509e-18
0.00525002
1.22345e-17
0.00525002
1.05269e-17
0.00525002
8.58214e-18
0.00525002
6.98802e-18
0.00525002
8.53809e-18
0.00525002
7.5945e-18
0.00525002
1.92446e-18
0.00525002
1.59539e-18
0.00525002
2.3196e-18
0.00525002
1.3151e-17
0.00525002
4.46149e-17
0.00525002
-1.86331e-15
0.00525002
-1.73e-14
0.00525002
2.04295e-13
0.00524983
-1.85469e-10
0.0051905
1.46564e-07
-5.44175e-08
0.00525002
-1.69068e-18
0.00525002
-1.64409e-18
0.00525002
4.57228e-18
0.00525002
5.30581e-18
0.00525002
1.98036e-18
0.00525002
1.22799e-18
0.00525002
1.29173e-20
0.00525002
5.93347e-19
0.00525002
9.1056e-20
0.00525002
7.51106e-19
0.00525002
-3.60667e-18
0.00525002
-6.56027e-19
0.00525002
2.05956e-18
0.00525002
1.03067e-17
0.00525002
1.03101e-17
0.00525002
7.60974e-18
0.00525002
5.25838e-18
0.00525002
4.01155e-18
0.00525002
4.12336e-18
0.00525002
6.33919e-18
0.00525002
4.70273e-18
0.00525002
1.49163e-18
0.00525002
3.87263e-18
0.00525002
2.09979e-18
0.00525002
4.07762e-18
0.00525002
4.73491e-18
0.00525002
5.83097e-18
0.00525002
2.55465e-18
0.00525002
1.99476e-19
0.00525002
1.13841e-18
0.00525002
-2.02356e-18
0.00525002
-4.55196e-18
0.00525002
-6.68309e-18
0.00525002
-5.58872e-18
0.00525002
-3.99715e-18
0.00525002
-4.52824e-18
0.00525002
-3.01798e-18
0.00525002
-3.23397e-18
0.00525002
-3.33026e-19
0.00525002
6.27651e-19
0.00525002
9.13779e-18
0.00525002
9.2889e-17
0.00525002
-5.9089e-16
0.00525002
1.60293e-14
0.00525002
5.11838e-13
0.00524983
-8.90938e-11
0.00519131
-1.72708e-07
7.66838e-08
0.00525002
-2.41066e-18
0.00525002
-1.12927e-18
0.00525002
6.98908e-19
0.00525002
3.58464e-18
0.00525002
6.25449e-18
0.00525002
5.51249e-18
0.00525002
3.88619e-18
0.00525002
3.11878e-18
0.00525002
8.55334e-18
0.00525002
6.90247e-18
0.00525002
6.21936e-18
0.00525002
-1.73769e-18
0.00525002
4.00816e-18
0.00525002
2.89855e-18
0.00525002
2.39626e-18
0.00525002
2.23108e-18
0.00525002
3.16579e-20
0.00525002
-2.42421e-18
0.00525002
-3.52366e-18
0.00525002
-5.0949e-19
0.00525002
2.41023e-18
0.00525002
-2.4691e-19
0.00525002
-3.45589e-18
0.00525002
-2.58599e-18
0.00525002
1.1185e-20
0.00525002
-3.00697e-20
0.00525002
-1.891e-19
0.00525002
-2.37508e-18
0.00525002
-3.12047e-18
0.00525002
-3.08913e-18
0.00525002
-6.25957e-18
0.00525002
-1.08217e-17
0.00525002
-7.13541e-18
0.00525002
-4.43083e-18
0.00525002
-6.13082e-18
0.00525002
-7.63854e-18
0.00525002
-3.05101e-18
0.00525002
-2.53093e-18
0.00525002
-9.33748e-19
0.00525002
5.25669e-18
0.00525002
-3.92409e-18
0.00525002
-1.83976e-17
0.00525002
-2.38335e-16
0.00525002
3.66326e-14
0.00525002
1.17182e-12
0.00524983
1.06076e-10
0.00519076
-1.4856e-07
1.27193e-08
0.00525002
3.37881e-18
0.00525002
3.04847e-18
0.00525002
1.7686e-18
0.00525002
1.82536e-18
0.00525002
6.14713e-18
0.00525002
-5.48793e-18
0.00525002
1.44504e-18
0.00525002
2.77573e-18
0.00525002
4.82639e-18
0.00525002
6.43237e-18
0.00525002
7.62668e-18
0.00525002
1.53076e-17
0.00525002
9.61552e-18
0.00525002
4.27074e-18
0.00525002
1.041e-18
0.00525002
2.80368e-18
0.00525002
-4.80945e-18
0.00525002
-2.32426e-18
0.00525002
-3.95395e-18
0.00525002
-1.09843e-17
0.00525002
2.72575e-18
0.00525002
-5.97666e-18
0.00525002
-2.40811e-18
0.00525002
-3.37543e-18
0.00525002
-9.19878e-18
0.00525002
-3.36441e-18
0.00525002
-1.01525e-17
0.00525002
-1.28715e-17
0.00525002
-1.14011e-17
0.00525002
-1.20516e-17
0.00525002
-9.73071e-18
0.00525002
-9.88318e-18
0.00525002
-3.32799e-18
0.00525002
-9.99499e-20
0.00525002
-2.97139e-18
0.00525002
-2.4259e-18
0.00525002
-6.72544e-18
0.00525002
-8.25857e-19
0.00525002
1.74611e-18
0.00525002
-2.35983e-18
0.00525002
7.54113e-18
0.00525002
6.35071e-17
0.00525002
1.39732e-15
0.00525002
4.37866e-14
0.00525002
3.79753e-14
0.00524983
-3.40944e-10
0.00519042
3.82321e-08
-9.49314e-08
0.00525002
2.29546e-18
0.00525002
-4.41347e-18
0.00525002
-6.21722e-19
0.00525002
-5.69206e-19
0.00525002
-7.55892e-18
0.00525002
-1.09979e-17
0.00525002
-7.09305e-18
0.00525002
-5.06526e-18
0.00525002
-4.86875e-18
0.00525002
1.85119e-18
0.00525002
1.11571e-17
0.00525002
1.5992e-17
0.00525002
1.41488e-17
0.00525002
6.69664e-18
0.00525002
3.97597e-18
0.00525002
1.60386e-18
0.00525002
-9.9069e-18
0.00525002
-1.16416e-17
0.00525002
-1.35051e-17
0.00525002
-1.6053e-17
0.00525002
-1.28512e-17
0.00525002
-9.10391e-18
0.00525002
-5.66326e-18
0.00525002
-6.73561e-18
0.00525002
-1.30714e-17
0.00525002
-1.53923e-17
0.00525002
-1.85331e-17
0.00525002
-1.72862e-17
0.00525002
-1.51178e-17
0.00525002
-1.53482e-17
0.00525002
-1.26276e-17
0.00525002
-1.07573e-17
0.00525002
-8.13152e-18
0.00525002
-7.18962e-18
0.00525002
-9.91706e-18
0.00525002
-1.22616e-17
0.00525002
-1.18551e-17
0.00525002
-7.94178e-18
0.00525002
-4.93312e-18
0.00525002
-3.83028e-18
0.00525002
-1.82824e-17
0.00525002
1.4508e-17
0.00525002
2.72785e-15
0.00525002
4.5177e-14
0.00525002
6.1663e-13
0.00524983
1.62468e-10
0.00519088
2.02167e-07
-1.64904e-07
0.00525002
-1.74912e-18
0.00525002
-3.93447e-18
0.00525002
-5.0246e-18
0.00525002
-3.75574e-18
0.00525002
-2.56482e-18
0.00525002
-4.40118e-18
0.00525002
-4.55873e-18
0.00525002
-4.4664e-18
0.00525002
-1.71778e-18
0.00525002
-3.03238e-19
0.00525002
-5.20925e-19
0.00525002
-1.24556e-18
0.00525002
-1.71439e-18
0.00525002
-1.1094e-18
0.00525002
7.32048e-19
0.00525002
1.71567e-18
0.00525002
-7.18517e-18
0.00525002
4.14877e-18
0.00525002
7.35563e-18
0.00525002
9.50371e-18
0.00525002
5.77253e-18
0.00525002
-2.75384e-18
0.00525002
-7.54537e-18
0.00525002
-9.09036e-18
0.00525002
-6.25957e-18
0.00525002
-7.3929e-18
0.00525002
-9.26485e-18
0.00525002
-1.26411e-17
0.00525002
-1.26377e-17
0.00525002
-9.40884e-18
0.00525002
-8.86674e-18
0.00525002
-5.37188e-18
0.00525002
-1.19296e-17
0.00525002
-1.60801e-17
0.00525002
-1.34678e-17
0.00525002
-1.18246e-17
0.00525002
-7.57586e-18
0.00525002
-3.44658e-18
0.00525002
-1.87639e-18
0.00525002
-9.37242e-19
0.00525002
-6.02749e-18
0.00525002
-4.3856e-17
0.00525002
1.84748e-15
0.00525002
3.26748e-14
0.00525002
1.26317e-12
0.00524983
6.41515e-10
0.00519149
-6.36373e-09
-7.96997e-08
0.00525002
1.54795e-18
0.00525002
-1.13926e-19
0.00525002
-2.18704e-18
0.00525002
-2.18365e-18
0.00525002
-1.71778e-18
0.00525002
-1.43022e-18
0.00525002
-3.84384e-18
0.00525002
-2.89855e-18
0.00525002
1.75039e-18
0.00525002
1.11575e-18
0.00525002
-3.19162e-18
0.00525002
-5.52604e-18
0.00525002
-6.55434e-18
0.00525002
-2.67408e-18
0.00525002
4.16105e-19
0.00525002
3.58295e-18
0.00525002
8.11796e-18
0.00525002
9.20555e-18
0.00525002
9.16828e-18
0.00525002
1.01203e-17
0.00525002
8.65329e-18
0.00525002
2.94937e-18
0.00525002
1.94606e-18
0.00525002
3.5101e-18
0.00525002
-5.03138e-19
0.00525002
-1.43826e-18
0.00525002
4.05813e-18
0.00525002
-1.33169e-18
0.00525002
-6.27821e-18
0.00525002
-9.30042e-19
0.00525002
4.00647e-19
0.00525002
2.26759e-19
0.00525002
-3.6541e-18
0.00525002
-6.31209e-18
0.00525002
-2.9121e-18
0.00525002
-1.81943e-18
0.00525002
-1.32137e-18
0.00525002
1.59496e-18
0.00525002
1.14349e-18
0.00525002
-1.0626e-18
0.00525002
-3.45589e-18
0.00525002
-4.97649e-17
0.00525002
3.70363e-16
0.00525002
1.32841e-14
0.00525002
-8.74275e-13
0.00524983
-3.38184e-10
0.00519043
2.24606e-09
8.50869e-07
0.00525002
4.40245e-19
0.00525002
1.54753e-18
0.00525002
-1.68898e-18
0.00525002
-4.92634e-18
0.00525002
-5.71239e-18
0.00525002
-1.08352e-17
0.00525002
-8.77357e-18
0.00525002
-6.26974e-18
0.00525002
-4.41812e-18
0.00525002
-4.9399e-18
0.00525002
-9.67312e-18
0.00525002
-6.85758e-18
0.00525002
-6.36122e-18
0.00525002
-6.87452e-18
0.00525002
1.52297e-18
0.00525002
-2.33262e-18
0.00525002
9.74088e-19
0.00525002
2.99511e-18
0.00525002
2.70627e-18
0.00525002
-8.60585e-19
0.00525002
-3.23482e-18
0.00525002
-9.8997e-19
0.00525002
1.75251e-18
0.00525002
6.11558e-18
0.00525002
5.57517e-18
0.00525002
1.00255e-17
0.00525002
8.00277e-18
0.00525002
1.10724e-17
0.00525002
8.24671e-18
0.00525002
1.75844e-18
0.00525002
-2.57948e-19
0.00525002
2.36576e-18
0.00525002
2.95614e-18
0.00525002
6.75932e-18
0.00525002
7.3082e-18
0.00525002
4.10642e-18
0.00525002
1.19474e-18
0.00525002
-1.66146e-18
0.00525002
-3.04508e-19
0.00525002
-2.12605e-18
0.00525002
-3.84976e-19
0.00525002
-2.98427e-17
0.00525002
-1.53686e-17
0.00525002
1.63198e-14
0.00525002
-2.03496e-13
0.00524983
7.32471e-11
0.00518976
7.05656e-08
2.94186e-05
0.00525002
-5.76194e-19
0.00525002
2.00493e-18
0.00525002
-1.08616e-18
0.00525002
-2.07608e-18
0.00525002
-6.43745e-19
0.00525002
-1.32476e-17
0.00525002
-4.65445e-19
0.00525002
-8.29669e-19
0.00525002
-3.2399e-18
0.00525002
-4.99241e-18
0.00525002
-4.1674e-18
0.00525002
-6.89146e-18
0.00525002
-9.35124e-18
0.00525002
-1.21431e-17
0.00525002
-1.28105e-17
0.00525002
-8.23316e-18
0.00525002
7.09051e-18
0.00525002
4.61464e-18
0.00525002
2.5826e-18
0.00525002
-4.28937e-18
0.00525002
-8.25349e-18
0.00525002
-6.13421e-18
0.00525002
-3.1103e-18
0.00525002
-9.05478e-19
0.00525002
-2.22092e-18
0.00525002
8.57833e-19
0.00525002
6.04951e-18
0.00525002
4.07762e-18
0.00525002
1.94648e-18
0.00525002
-3.96242e-18
0.00525002
-2.11928e-18
0.00525002
1.11872e-18
0.00525002
3.1679e-18
0.00525002
2.08201e-18
0.00525002
5.54129e-18
0.00525002
2.8113e-18
0.00525002
2.21838e-18
0.00525002
-1.83171e-18
0.00525002
-2.86212e-18
0.00525002
-3.07558e-18
0.00525002
3.64224e-19
0.00525002
1.44877e-17
0.00525002
3.42337e-16
0.00525002
5.53854e-15
0.00525002
5.24494e-13
0.00524983
4.03525e-09
0.00519193
-1.79624e-07
0.000329468
0.00525002
-6.26593e-19
0.00525002
-3.72017e-18
0.00525002
-4.39144e-18
0.00525002
2.39244e-18
0.00525002
5.8513e-18
0.00525002
7.09136e-18
0.00525002
7.17776e-18
0.00525002
3.29242e-18
0.00525002
-1.65426e-18
0.00525002
-2.06083e-18
0.00525002
1.51094e-19
0.00525002
-3.63462e-18
0.00525002
-2.99511e-18
0.00525002
-5.31428e-18
0.00525002
7.33806e-18
0.00525002
2.01424e-18
0.00525002
6.822e-18
0.00525002
3.73033e-18
0.00525002
2.77996e-18
0.00525002
5.68444e-18
0.00525002
1.90582e-19
0.00525002
-6.33919e-18
0.00525002
-7.68428e-18
0.00525002
-4.24194e-18
0.00525002
-5.40576e-18
0.00525002
-8.80237e-18
0.00525002
-5.83775e-18
0.00525002
-1.14045e-17
0.00525002
-9.09036e-18
0.00525002
-5.92584e-18
0.00525002
-4.30632e-18
0.00525002
-2.6275e-18
0.00525002
-6.15115e-18
0.00525002
-8.54995e-18
0.00525002
-1.1147e-18
0.00525002
-2.75625e-18
0.00525002
-4.79579e-19
0.00525002
-1.51259e-18
0.00525002
-5.38925e-19
0.00525002
9.599e-19
0.00525002
6.34766e-18
0.00525002
-2.06202e-17
0.00525002
1.02349e-15
0.00525002
2.48638e-14
0.00525002
-9.21963e-12
0.00524983
7.49611e-09
0.00520057
-5.17622e-06
0.00129448
0.00525002
6.76779e-19
0.00525002
-5.30243e-19
0.00525002
-5.87671e-18
0.00525002
-1.28453e-18
0.00525002
4.62311e-18
0.00525002
3.45928e-18
0.00525002
2.2836e-18
0.00525002
2.00154e-18
0.00525002
3.35594e-18
0.00525002
7.95872e-18
0.00525002
6.19859e-18
0.00525002
5.72425e-18
0.00525002
1.32273e-17
0.00525002
9.23605e-18
0.00525002
1.0327e-17
0.00525002
5.87502e-18
0.00525002
-1.87279e-18
0.00525002
-1.76606e-18
0.00525002
-2.3683e-18
0.00525002
5.44642e-18
0.00525002
6.88468e-18
0.00525002
6.65429e-18
0.00525002
1.58226e-18
0.00525002
5.87248e-18
0.00525002
-3.01872e-18
0.00525002
-4.23347e-18
0.00525002
-6.54418e-18
0.00525002
1.24937e-18
0.00525002
1.80079e-18
0.00525002
-7.01767e-19
0.00525002
1.32582e-18
0.00525002
5.98952e-19
0.00525002
2.89516e-18
0.00525002
-1.11359e-17
0.00525002
-1.26716e-18
0.00525002
-1.17483e-18
0.00525002
-2.05511e-18
0.00525002
-1.96469e-18
0.00525002
4.94879e-19
0.00525002
1.4857e-18
0.00525002
4.40118e-18
0.00525002
-2.42929e-17
0.00525002
1.25009e-15
0.00525002
1.20277e-13
0.00525002
6.31825e-13
0.00524983
2.25817e-08
0.00520618
-1.05174e-05
0.00281746
0.00525002
1.45181e-18
0.00525002
7.58518e-19
0.00525002
-3.45611e-18
0.00525002
6.36334e-20
0.00525002
-7.58306e-19
0.00525002
-3.14842e-18
0.00525002
-2.41066e-18
0.00525002
-2.09323e-18
0.00525002
1.70735e-18
0.00525002
6.75255e-18
0.00525002
5.71578e-18
0.00525002
6.69834e-18
0.00525002
1.1191e-17
0.00525002
5.25838e-18
0.00525002
5.93262e-18
0.00525002
-8.68717e-18
0.00525002
-5.78354e-18
0.00525002
-7.30142e-18
0.00525002
-9.93061e-18
0.00525002
-6.07492e-18
0.00525002
1.30401e-18
0.00525002
-6.16809e-18
0.00525002
4.33003e-18
0.00525002
1.20262e-17
0.00525002
5.72425e-18
0.00525002
4.17164e-18
0.00525002
2.57413e-18
0.00525002
1.9342e-18
0.00525002
3.96411e-18
0.00525002
4.50622e-18
0.00525002
5.02291e-18
0.00525002
7.12694e-18
0.00525002
5.12794e-18
0.00525002
4.21653e-18
0.00525002
5.74924e-20
0.00525002
-2.59361e-18
0.00525002
-9.60535e-19
0.00525002
-9.96111e-19
0.00525002
5.66505e-20
0.00525002
-1.8135e-18
0.00525002
-1.73324e-19
0.00525002
9.55318e-17
0.00525002
-7.60134e-16
0.00525002
2.41935e-13
0.00525002
1.03008e-10
0.0052498
7.95287e-08
0.00519628
6.7463e-06
0.0061627
0.00525002
-6.38504e-19
0.00525002
3.39321e-18
0.00525002
4.88738e-18
0.00525002
4.23516e-18
0.00525002
1.1526e-18
0.00525002
-4.0611e-18
0.00525002
-2.70204e-18
0.00525002
-3.17383e-18
0.00525002
-3.79217e-18
0.00525002
-1.28961e-18
0.00525002
2.20737e-18
0.00525002
3.03153e-18
0.00525002
2.95699e-18
0.00525002
3.35933e-18
0.00525002
-3.65749e-18
0.00525002
-7.16759e-18
0.00525002
-9.90351e-18
0.00525002
-9.24282e-18
0.00525002
-6.57043e-18
0.00525002
-9.00565e-18
0.00525002
1.32603e-18
0.00525002
-6.52554e-18
0.00525002
-4.56381e-18
0.00525002
1.55388e-18
0.00525002
2.88076e-18
0.00525002
2.45047e-18
0.00525002
7.22096e-19
0.00525002
-8.74562e-19
0.00525002
1.38405e-18
0.00525002
2.98156e-18
0.00525002
4.1115e-18
0.00525002
3.67612e-18
0.00525002
1.91853e-18
0.00525002
-3.18908e-18
0.00525002
-3.9692e-18
0.00525002
-2.60632e-18
0.00525002
-1.43869e-18
0.00525002
-2.88245e-18
0.00525002
-6.58145e-18
0.00525002
-8.29076e-18
0.00525002
-9.37157e-18
0.00525002
-1.04185e-17
0.00525002
-1.07249e-15
0.00525002
1.80316e-13
0.00525002
7.16056e-11
0.00524999
4.04045e-08
0.00523991
4.16615e-06
0.00143438
0.00840055
0.00525002
3.9045e-19
0.00525002
5.72425e-18
0.00525002
2.88499e-18
0.00525002
5.70392e-18
0.00525002
4.25041e-18
0.00525002
3.98105e-18
0.00525002
2.92332e-19
0.00525002
-1.15196e-18
0.00525002
1.69322e-18
0.00525002
1.95707e-18
0.00525002
4.54645e-19
0.00525002
-1.32815e-18
0.00525002
-1.8406e-18
0.00525002
-3.20178e-19
0.00525002
-3.83282e-19
0.00525002
-2.7554e-18
0.00525002
-9.35463e-18
0.00525002
-8.71089e-18
0.00525002
-2.35983e-18
0.00525002
1.43064e-18
0.00525002
3.0129e-18
0.00525002
-1.05943e-18
0.00525002
-3.08913e-18
0.00525002
-1.31417e-18
0.00525002
1.49332e-18
0.00525002
2.97224e-18
0.00525002
2.93158e-18
0.00525002
3.44065e-18
0.00525002
5.94278e-18
0.00525002
9.22927e-18
0.00525002
1.02423e-17
0.00525002
7.80795e-18
0.00525002
3.98105e-18
0.00525002
-3.4038e-18
0.00525002
3.72059e-18
0.00525002
2.42675e-18
0.00525002
3.54144e-18
0.00525002
2.80368e-19
0.00525002
-8.29076e-18
0.00525002
-3.70662e-18
0.00525002
-3.31529e-18
0.00525002
-4.89788e-17
0.00525002
-7.18413e-16
0.00525002
4.37879e-14
0.00525002
2.0196e-11
0.00525003
5.28419e-09
0.00525202
9.1202e-07
0.000200874
0.0059977
0.00525002
1.50772e-19
0.00525002
9.39783e-19
0.00525002
-5.57517e-18
0.00525002
1.5272e-18
0.00525002
3.46394e-18
0.00525002
4.95514e-18
0.00525002
1.28105e-17
0.00525002
1.29969e-17
0.00525002
9.08528e-18
0.00525002
4.43422e-19
0.00525002
-8.1349e-18
0.00525002
-1.06625e-17
0.00525002
-8.68209e-18
0.00525002
-5.26854e-18
0.00525002
-4.97547e-18
0.00525002
-7.18453e-18
0.00525002
-7.39121e-18
0.00525002
-6.04782e-18
0.00525002
-5.6243e-18
0.00525002
-4.00392e-18
0.00525002
-5.24144e-18
0.00525002
-3.49232e-18
0.00525002
-3.88619e-18
0.00525002
-3.17637e-18
0.00525002
-5.0822e-21
0.00525002
6.51368e-19
0.00525002
-4.16486e-18
0.00525002
-9.66676e-19
0.00525002
2.24337e-18
0.00525002
7.77026e-18
0.00525002
1.07963e-17
0.00525002
9.40884e-18
0.00525002
4.61633e-18
0.00525002
3.15012e-18
0.00525002
2.79267e-18
0.00525002
-3.90122e-18
0.00525002
-6.2744e-19
0.00525002
-5.338e-18
0.00525002
-5.14996e-19
0.00525002
3.25038e-18
0.00525002
2.09492e-18
0.00525002
-2.3185e-17
0.00525002
1.12947e-16
0.00525002
-3.21822e-14
0.00525002
1.85241e-12
0.00525002
4.06744e-10
0.00525033
4.88363e-08
1.20632e-05
0.0053614
0.00525002
-1.46028e-18
0.00525002
-4.11827e-18
0.00525002
-4.55534e-18
0.00525002
-9.97127e-18
0.00525002
-9.37157e-18
0.00525002
1.77199e-18
0.00525002
-3.5982e-18
0.00525002
-3.57787e-18
0.00525002
4.74338e-18
0.00525002
2.66033e-20
0.00525002
-5.20756e-18
0.00525002
-9.75782e-18
0.00525002
-9.72733e-18
0.00525002
-4.94498e-18
0.00525002
-4.29615e-18
0.00525002
-7.32853e-18
0.00525002
-6.2528e-18
0.00525002
-3.69476e-18
0.00525002
-4.54348e-18
0.00525002
-3.66088e-18
0.00525002
-2.37169e-18
0.00525002
-6.09356e-18
0.00525002
-1.08759e-17
0.00525002
-9.92045e-18
0.00525002
-9.62568e-18
0.00525002
-3.52874e-18
0.00525002
-6.00038e-18
0.00525002
-2.73846e-18
0.00525002
-1.12221e-18
0.00525002
-3.26499e-18
0.00525002
-8.90655e-19
0.00525002
2.84772e-18
0.00525002
6.69325e-18
0.00525002
3.22042e-18
0.00525002
1.49332e-18
0.00525002
-3.483e-18
0.00525002
-4.38424e-18
0.00525002
-2.08349e-18
0.00525002
-1.40692e-18
0.00525002
4.93185e-19
0.00525002
1.05879e-20
0.00525002
-1.6839e-18
0.00525002
-9.35124e-19
0.00525002
-5.31194e-14
0.00525002
1.16124e-13
0.00525002
1.17722e-11
0.00525003
1.65082e-09
3.00534e-07
0.00525702
0.00525002
-8.31786e-19
0.00525002
1.4624e-18
0.00525002
4.48927e-19
0.00525002
-3.38983e-18
0.00525002
-7.37935e-18
0.00525002
-1.76522e-17
0.00525002
-1.88448e-17
0.00525002
-1.463e-17
0.00525002
-7.34547e-18
0.00525002
-5.29396e-19
0.00525002
-1.98121e-18
0.00525002
-4.67223e-18
0.00525002
-1.1008e-17
0.00525002
-1.3356e-17
0.00525002
-7.91129e-18
0.00525002
-3.61005e-18
0.00525002
-6.2528e-18
0.00525002
-2.50044e-18
0.00525002
-3.95564e-19
0.00525002
2.52204e-19
0.00525002
-9.26442e-19
0.00525002
-4.06491e-18
0.00525002
3.38813e-21
0.00525002
2.63607e-18
0.00525002
6.86944e-19
0.00525002
7.93839e-18
0.00525002
8.65668e-18
0.00525002
4.61294e-18
0.00525002
2.63597e-18
0.00525002
6.22485e-18
0.00525002
6.79998e-18
0.00525002
1.01102e-17
0.00525002
9.03615e-18
0.00525002
3.06965e-18
0.00525002
6.06645e-18
0.00525002
2.69018e-18
0.00525002
4.91872e-18
0.00525002
5.58872e-18
0.00525002
3.48469e-18
0.00525002
4.49436e-18
0.00525002
5.9089e-18
0.00525002
1.04905e-18
0.00525002
5.32614e-18
0.00525002
-2.44691e-14
0.00525002
-2.69958e-14
0.00525002
-2.89108e-12
0.00525002
2.64669e-11
3.53415e-09
0.00525019
0.00525002
-2.35793e-19
0.00525002
8.38774e-19
0.00525002
2.30054e-18
0.00525002
-3.26785e-18
0.00525002
-2.80834e-18
0.00525002
-7.86047e-19
0.00525002
1.5704e-18
0.00525002
-4.74338e-19
0.00525002
8.56562e-19
0.00525002
-4.82809e-20
0.00525002
3.11369e-18
0.00525002
9.12424e-18
0.00525002
-6.32056e-18
0.00525002
-1.49552e-17
0.00525002
1.12825e-18
0.00525002
-1.66781e-18
0.00525002
-2.17476e-19
0.00525002
-1.65171e-18
0.00525002
-1.41582e-18
0.00525002
-2.02695e-18
0.00525002
-1.36245e-18
0.00525002
5.86359e-19
0.00525002
4.48927e-18
0.00525002
1.04905e-18
0.00525002
-9.94586e-18
0.00525002
1.52466e-18
0.00525002
1.93462e-18
0.00525002
6.2511e-19
0.00525002
6.42051e-19
0.00525002
6.28498e-18
0.00525002
-3.11708e-18
0.00525002
-2.5123e-18
0.00525002
3.03153e-18
0.00525002
-4.79562e-18
0.00525002
-2.06676e-19
0.00525002
5.96565e-18
0.00525002
5.51673e-18
0.00525002
2.47545e-18
0.00525002
-1.46283e-18
0.00525002
-5.34817e-18
0.00525002
8.50421e-19
0.00525002
9.33642e-19
0.00525002
2.29546e-18
0.00525002
-2.08123e-15
0.00525002
-3.65658e-14
0.00525002
-5.50875e-12
0.00525002
-1.42642e-12
2.51952e-11
0.00525002
0.00525002
6.88426e-19
0.00525002
1.16763e-18
0.00525002
3.82605e-18
0.00525002
6.58992e-18
0.00525002
2.41235e-18
0.00525002
7.3641e-18
0.00525002
8.22638e-18
0.00525002
3.13741e-18
0.00525002
2.86128e-18
0.00525002
7.13202e-18
0.00525002
1.04558e-17
0.00525002
1.43149e-17
0.00525002
1.47011e-17
0.00525002
1.17263e-17
0.00525002
1.18449e-17
0.00525002
9.00227e-18
0.00525002
7.44034e-18
0.00525002
3.5406e-19
0.00525002
-8.5508e-19
0.00525002
-1.4497e-18
0.00525002
-2.58091e-18
0.00525002
3.3119e-19
0.00525002
2.89858e-19
0.00525002
-1.56659e-18
0.00525002
-4.77557e-18
0.00525002
-4.1691e-18
0.00525002
-5.29565e-18
0.00525002
-4.76371e-18
0.00525002
-7.88588e-19
0.00525002
-1.06692e-17
0.00525002
-1.16586e-17
0.00525002
-1.08657e-17
0.00525002
-1.36203e-17
0.00525002
-7.25568e-18
0.00525002
-5.4803e-18
0.00525002
-6.39002e-18
0.00525002
-2.62496e-18
0.00525002
-7.22011e-18
0.00525002
-4.79421e-18
0.00525002
-8.22638e-18
0.00525002
-1.21532e-17
0.00525002
-6.29854e-18
0.00525002
-3.76337e-18
0.00525002
-6.07492e-18
0.00525002
-1.01494e-14
0.00525002
-2.49377e-12
0.00525002
-2.86159e-12
-1.90466e-13
0.00525002
0.00525002
1.70889e-19
0.00525002
3.14588e-18
0.00525002
5.0534e-18
0.00525002
6.1376e-18
0.00525002
4.54348e-18
0.00525002
4.15639e-18
0.00525002
2.37339e-18
0.00525002
4.45201e-18
0.00525002
5.13471e-18
0.00525002
3.78793e-18
0.00525002
3.82859e-19
0.00525002
2.14384e-18
0.00525002
1.44292e-18
0.00525002
6.37308e-18
0.00525002
9.0497e-18
0.00525002
1.02999e-17
0.00525002
8.66345e-18
0.00525002
7.26585e-18
0.00525002
4.75185e-18
0.00525002
9.00396e-19
0.00525002
-9.67312e-19
0.00525002
-2.28868e-18
0.00525002
-2.47927e-18
0.00525002
-8.36445e-19
0.00525002
3.26108e-18
0.00525002
-1.53313e-19
0.00525002
-3.9963e-18
0.00525002
-8.98871e-18
0.00525002
-9.84252e-18
0.00525002
-7.67412e-18
0.00525002
-7.80287e-18
0.00525002
-6.54926e-18
0.00525002
-7.35733e-18
0.00525002
-6.01393e-18
0.00525002
-3.1264e-18
0.00525002
-4.92973e-18
0.00525002
-4.78404e-18
0.00525002
-1.15772e-17
0.00525002
-1.06929e-17
0.00525002
-8.82608e-18
0.00525002
1.6839e-18
0.00525002
-7.68259e-18
0.00525002
-4.17757e-18
0.00525002
-4.89924e-18
0.00525002
-1.41272e-16
0.00525002
-2.19413e-13
0.00525002
-9.57219e-13
-7.5048e-13
0.00525002
0.00525002
2.69515e-19
0.00525002
-3.89635e-19
0.00525002
-4.89077e-18
0.00525002
-6.9787e-18
0.00525002
-5.17888e-19
0.00525002
1.13672e-18
0.00525002
1.7523e-20
0.00525002
-4.26227e-18
0.00525002
-4.22669e-18
0.00525002
-7.23366e-18
0.00525002
-5.29904e-18
0.00525002
-3.37797e-18
0.00525002
-2.50976e-18
0.00525002
1.44885e-18
0.00525002
4.081e-18
0.00525002
5.9377e-18
0.00525002
7.11169e-18
0.00525002
7.74188e-18
0.00525002
3.84892e-18
0.00525002
4.85773e-19
0.00525002
1.89253e-21
0.00525002
6.55604e-19
0.00525002
1.13693e-18
0.00525002
2.7266e-18
0.00525002
2.29546e-18
0.00525002
1.80164e-18
0.00525002
-2.13876e-18
0.00525002
-8.81253e-18
0.00525002
-9.38851e-18
0.00525002
-5.90551e-18
0.00525002
-6.58822e-18
0.00525002
-4.09964e-18
0.00525002
-1.63784e-18
0.00525002
-3.3966e-18
0.00525002
-8.15481e-19
0.00525002
1.69745e-18
0.00525002
6.34682e-18
0.00525002
1.60767e-18
0.00525002
-1.03846e-18
0.00525002
5.73695e-18
0.00525002
5.01782e-18
0.00525002
4.86197e-19
0.00525002
-1.52667e-18
0.00525002
-5.64124e-18
0.00525002
-2.67662e-18
0.00525002
-1.41824e-15
0.00525002
-6.24769e-14
-1.08014e-13
0.00525002
0.00525002
-5.57348e-19
0.00525002
-4.16401e-18
0.00525002
-8.04004e-18
0.00525002
-5.0534e-18
0.00525002
-2.75667e-18
0.00525002
-4.91279e-19
0.00525002
-1.09267e-18
0.00525002
-4.21822e-18
0.00525002
-5.80556e-18
0.00525002
-1.02254e-17
0.00525002
-5.59042e-18
0.00525002
-3.47622e-18
0.00525002
8.45762e-19
0.00525002
-6.91708e-19
0.00525002
-8.65244e-19
0.00525002
1.04185e-18
0.00525002
9.20386e-18
0.00525002
1.12113e-17
0.00525002
1.05269e-17
0.00525002
7.06256e-18
0.00525002
2.91591e-19
0.00525002
-9.78323e-20
0.00525002
1.34932e-18
0.00525002
1.07404e-18
0.00525002
1.89693e-18
0.00525002
2.23151e-18
0.00525002
-1.46791e-18
0.00525002
-4.0539e-18
0.00525002
-3.00358e-18
0.00525002
-5.40068e-18
0.00525002
-5.35494e-18
0.00525002
-2.69272e-18
0.00525002
3.98783e-18
0.00525002
7.4505e-18
0.00525002
1.05642e-17
0.00525002
8.31786e-18
0.00525002
1.01068e-17
0.00525002
9.23266e-18
0.00525002
1.54499e-18
0.00525002
3.52789e-18
0.00525002
1.09979e-17
0.00525002
1.2675e-17
0.00525002
8.54826e-18
0.00525002
8.20267e-18
0.00525002
8.17556e-18
0.00525002
-4.60345e-17
0.00525002
-6.68614e-17
-1.18579e-15
0.00525002
0.00525002
-1.56786e-18
0.00525002
-3.17897e-18
0.00525002
3.07346e-18
0.00525002
9.97805e-19