/*--------------------------------*- C++ -*----------------------------------*\
| =========                 |                                                 |
| \\      /  F ield         | OpenFOAM: The Open Source CFD Toolbox           |
|  \\    /   O peration     | Version:  v1912                                 |
|   \\  /    A nd           | Website:  www.openfoam.com                      |
|    \\/     M anipulation  |                                                 |
\*---------------------------------------------------------------------------*/
FoamFile
{
    version     2.0;
    format      ascii;
    class       volVectorField;
    location    "0.02";
    object      U;
}
// * * * * * * * * * * * * * * * * * * * * * * * * * * * * * * * * * * * * * //

dimensions      [0 1 -1 0 0 0 0];


internalField   nonuniform List<vector> 
16128
(
(3 -1.41125e-16 0)
(3 1.68515e-16 0)
(3 -8.91341e-16 0)
(3 -1.51036e-15 0)
(3 -1.412e-16 0)
(3 2.1248e-15 0)
(3 3.31125e-15 0)
(3 2.19034e-15 0)
(3 -1.36068e-16 0)
(3 -3.87469e-17 0)
(3 1.59449e-15 0)
(3 3.18144e-15 0)
(3 1.22405e-15 0)
(3 -2.29819e-15 0)
(3 -2.58086e-15 0)
(3 -2.26081e-15 0)
(3 -2.6391e-15 0)
(3 -3.01631e-15 0)
(3 -9.65091e-16 0)
(3 -8.77152e-16 0)
(3 -2.43499e-15 0)
(3 -4.39394e-15 0)
(3 -5.10474e-15 0)
(3 -3.26535e-15 0)
(3 -2.81133e-15 0)
(3 -6.79095e-16 0)
(3 -1.81e-16 0)
(3 2.97043e-15 0)
(3 4.36341e-15 0)
(3 5.78636e-15 0)
(3 2.1366e-15 0)
(3 1.05799e-15 0)
(3 2.21506e-15 0)
(3 1.92005e-15 0)
(3 2.05065e-15 0)
(3 1.4018e-15 0)
(3 1.14073e-15 0)
(3 -3.77631e-16 0)
(3 -5.7698e-16 0)
(3 2.51443e-15 0)
(3 -9.09658e-15 0)
(3 2.45058e-14 0)
(3 -4.49511e-13 0)
(3 -2.01144e-11 0)
(3 -3.062e-10 0)
(2.99986 2.52159e-08 0)
(2.95207 3.70595e-06 0)
(1.73512 9.64733e-07 0)
(3 4.64757e-16 0)
(3 1.93219e-15 0)
(3 1.49219e-15 0)
(3 1.70742e-15 0)
(3 1.0947e-15 0)
(3 3.57109e-15 0)
(3 2.04971e-15 0)
(3 1.97603e-15 0)
(3 1.29573e-15 0)
(3 2.70249e-15 0)
(3 2.61646e-15 0)
(3 3.29195e-15 0)
(3 1.48713e-15 0)
(3 -8.03244e-16 0)
(3 -4.26432e-16 0)
(3 2.4335e-15 0)
(3 3.35304e-15 0)
(3 6.0457e-15 0)
(3 7.79377e-15 0)
(3 6.13784e-15 0)
(3 5.06794e-15 0)
(3 1.60585e-15 0)
(3 7.59852e-16 0)
(3 2.22946e-15 0)
(3 4.65125e-15 0)
(3 5.6888e-15 0)
(3 7.87846e-15 0)
(3 1.03997e-14 0)
(3 1.76781e-14 0)
(3 1.7874e-14 0)
(3 1.469e-14 0)
(3 1.17172e-14 0)
(3 1.18951e-14 0)
(3 1.1021e-14 0)
(3 9.82063e-15 0)
(3 9.249e-15 0)
(3 7.59407e-15 0)
(3 3.88472e-15 0)
(3 5.25263e-15 0)
(3 5.91439e-15 0)
(3 5.01286e-15 0)
(3 2.46271e-14 0)
(3 -2.5873e-12 0)
(3 -7.6181e-11 0)
(3 -3.37623e-10 0)
(2.99986 3.76142e-08 0)
(2.95208 2.3538e-06 0)
(1.73512 3.14922e-06 0)
(3 1.69143e-16 0)
(3 1.31837e-16 0)
(3 1.09915e-15 0)
(3 1.91599e-15 0)
(3 -2.55724e-15 0)
(3 -4.20272e-15 0)
(3 -4.536e-15 0)
(3 -4.7398e-15 0)
(3 -3.0751e-15 0)
(3 -4.05871e-15 0)
(3 -5.25409e-15 0)
(3 -7.85825e-15 0)
(3 -6.11099e-15 0)
(3 -1.59212e-15 0)
(3 5.75784e-17 0)
(3 7.76084e-16 0)
(3 3.06651e-15 0)
(3 7.66123e-15 0)
(3 5.73881e-15 0)
(3 3.42683e-15 0)
(3 6.73641e-16 0)
(3 -5.24541e-16 0)
(3 1.80059e-15 0)
(3 1.58987e-15 0)
(3 4.46129e-15 0)
(3 2.52939e-15 0)
(3 3.40002e-15 0)
(3 3.78359e-15 0)
(3 1.74308e-15 0)
(3 1.90445e-15 0)
(3 5.46999e-15 0)
(3 2.71873e-15 0)
(3 3.92094e-17 0)
(3 -4.86257e-16 0)
(3 -1.03968e-16 0)
(3 3.71869e-16 0)
(3 9.63608e-16 0)
(3 3.95215e-15 0)
(3 3.01149e-15 0)
(3 -1.03672e-16 0)
(3 1.55654e-15 0)
(3 -5.16139e-14 0)
(3 -3.92263e-12 0)
(3 -1.0416e-10 0)
(3 -4.69665e-10 0)
(2.99986 2.44574e-08 0)
(2.95205 -7.81443e-06 0)
(1.73513 8.28203e-06 0)
(3 -4.78982e-16 0)
(3 -3.1523e-15 0)
(3 -4.48865e-15 0)
(3 -6.58459e-15 0)
(3 -5.85758e-15 0)
(3 -4.26813e-16 0)
(3 3.2102e-15 0)
(3 -2.30988e-15 0)
(3 -1.04349e-14 0)
(3 -1.24815e-14 0)
(3 -9.59003e-15 0)
(3 -7.14831e-15 0)
(3 -4.84815e-15 0)
(3 -2.6158e-15 0)
(3 -6.77471e-15 0)
(3 -1.17274e-14 0)
(3 -1.18135e-14 0)
(3 -1.24433e-14 0)
(3 -1.19096e-14 0)
(3 -9.37289e-15 0)
(3 -8.49201e-15 0)
(3 -4.97959e-15 0)
(3 -1.37012e-15 0)
(3 -3.38164e-15 0)
(3 -7.34381e-15 0)
(3 -7.45706e-15 0)
(3 -8.82793e-15 0)
(3 -7.87107e-15 0)
(3 -6.3716e-15 0)
(3 -9.42813e-15 0)
(3 -8.18341e-15 0)
(3 -9.75894e-15 0)
(3 -8.46525e-15 0)
(3 -8.4823e-15 0)
(3 -8.2447e-15 0)
(3 -9.03366e-15 0)
(3 -8.14197e-15 0)
(3 -6.25216e-15 0)
(3 -1.35109e-14 0)
(3 -1.31015e-14 0)
(3 -1.94401e-14 0)
(3 -7.76975e-14 0)
(3 -2.73186e-12 0)
(3 -8.06614e-11 0)
(3 -3.0641e-10 0)
(2.99986 2.35403e-08 0)
(2.95196 -1.69499e-06 0)
(1.73514 3.94656e-06 0)
(3 1.75823e-15 0)
(3 1.20394e-15 0)
(3 9.30991e-16 0)
(3 3.01576e-15 0)
(3 6.57579e-15 0)
(3 7.70704e-15 0)
(3 3.1993e-16 0)
(3 -2.13623e-15 0)
(3 -3.61921e-15 0)
(3 1.0377e-15 0)
(3 3.96315e-15 0)
(3 4.77665e-15 0)
(3 4.78881e-15 0)
(3 1.66589e-15 0)
(3 4.5801e-16 0)
(3 7.10605e-15 0)
(3 5.10107e-15 0)
(3 7.3008e-15 0)
(3 7.96965e-15 0)
(3 9.83019e-15 0)
(3 8.74816e-15 0)
(3 1.44699e-14 0)
(3 1.0515e-14 0)
(3 1.15756e-14 0)
(3 7.23861e-15 0)
(3 8.78434e-15 0)
(3 8.52222e-15 0)
(3 6.96716e-15 0)
(3 7.31129e-15 0)
(3 6.7309e-15 0)
(3 1.02214e-14 0)
(3 1.3883e-14 0)
(3 1.27697e-14 0)
(3 8.78274e-15 0)
(3 6.87048e-15 0)
(3 8.69275e-15 0)
(3 7.17491e-15 0)
(3 2.239e-15 0)
(3 1.28748e-16 0)
(3 1.40795e-15 0)
(3 -2.06698e-15 0)
(3 6.35156e-15 0)
(3 -1.17346e-12 0)
(3 -2.76861e-11 0)
(3 -4.07889e-11 0)
(2.99986 1.13386e-08 0)
(2.95197 -6.91242e-08 0)
(1.73514 1.23965e-06 0)
(3 1.78433e-17 0)
(3 3.64191e-15 0)
(3 4.86082e-15 0)
(3 5.08674e-15 0)
(3 6.65009e-16 0)
(3 -1.50165e-15 0)
(3 -2.23754e-15 0)
(3 -5.0054e-16 0)
(3 -3.82205e-16 0)
(3 1.65662e-15 0)
(3 2.9617e-16 0)
(3 -1.21326e-16 0)
(3 2.51001e-16 0)
(3 5.36964e-15 0)
(3 6.86015e-15 0)
(3 8.01207e-15 0)
(3 8.70848e-15 0)
(3 7.27772e-15 0)
(3 7.30647e-15 0)
(3 7.68794e-15 0)
(3 5.53341e-15 0)
(3 3.06983e-15 0)
(3 5.82848e-15 0)
(3 6.12937e-15 0)
(3 5.74056e-15 0)
(3 5.03609e-15 0)
(3 5.66022e-15 0)
(3 3.40927e-15 0)
(3 1.24019e-15 0)
(3 2.33142e-15 0)
(3 1.7413e-15 0)
(3 2.36427e-15 0)
(3 6.68292e-16 0)
(3 3.45813e-16 0)
(3 6.66082e-16 0)
(3 4.67953e-16 0)
(3 7.90021e-16 0)
(3 -3.70186e-16 0)
(3 1.31683e-15 0)
(3 9.1661e-16 0)
(3 9.94393e-15 0)
(3 1.03498e-13 0)
(3 -4.01545e-13 0)
(3 6.78863e-12 0)
(3 1.5729e-10 0)
(2.99986 1.20215e-08 0)
(2.95205 -8.94255e-06 0)
(1.73513 -6.56529e-08 0)
(3 -1.70084e-15 0)
(3 -1.512e-15 0)
(3 4.77518e-16 0)
(3 1.4164e-15 0)
(3 2.0482e-15 0)
(3 2.55341e-15 0)
(3 1.58661e-15 0)
(3 8.9496e-16 0)
(3 1.48008e-15 0)
(3 -1.25157e-15 0)
(3 -4.23638e-15 0)
(3 -2.40278e-15 0)
(3 2.11049e-15 0)
(3 5.87637e-15 0)
(3 5.13369e-15 0)
(3 1.21486e-15 0)
(3 1.70209e-16 0)
(3 -2.05114e-15 0)
(3 -2.71647e-15 0)
(3 -8.64789e-17 0)
(3 2.86196e-16 0)
(3 -1.24756e-15 0)
(3 -2.94755e-15 0)
(3 -4.54396e-15 0)
(3 -1.98503e-16 0)
(3 8.49488e-16 0)
(3 1.63949e-15 0)
(3 -5.30365e-17 0)
(3 -8.18582e-16 0)
(3 -7.30915e-16 0)
(3 -3.84247e-15 0)
(3 -7.11425e-15 0)
(3 -7.71554e-15 0)
(3 -6.23999e-15 0)
(3 -4.90701e-15 0)
(3 -5.13158e-15 0)
(3 -3.81841e-15 0)
(3 -2.92282e-15 0)
(3 -1.51352e-15 0)
(3 1.62982e-16 0)
(3 -4.18183e-15 0)
(3 -7.46019e-15 0)
(3 -4.03765e-13 0)
(3 1.463e-11 0)
(3 1.92338e-10 0)
(2.99986 4.77688e-08 0)
(2.95193 -1.53203e-05 0)
(1.73514 5.18659e-07 0)
(3 2.17728e-15 0)
(3 3.62713e-16 0)
(3 1.80451e-16 0)
(3 2.60521e-15 0)
(3 4.42605e-15 0)
(3 4.43034e-15 0)
(3 3.1613e-15 0)
(3 3.10968e-15 0)
(3 5.96455e-15 0)
(3 4.76538e-15 0)
(3 4.21237e-15 0)
(3 2.38019e-15 0)
(3 2.22674e-15 0)
(3 5.96734e-16 0)
(3 -5.52755e-16 0)
(3 1.3152e-15 0)
(3 -4.68613e-16 0)
(3 -9.19377e-16 0)
(3 -1.81361e-15 0)
(3 -1.01913e-15 0)
(3 2.16214e-15 0)
(3 1.13295e-15 0)
(3 -6.37626e-16 0)
(3 -1.27028e-15 0)
(3 5.28121e-17 0)
(3 -1.0631e-15 0)
(3 -2.1689e-15 0)
(3 -3.0958e-15 0)
(3 -3.10776e-15 0)
(3 -3.11041e-15 0)
(3 -3.46759e-15 0)
(3 -5.37359e-15 0)
(3 -4.54249e-16 0)
(3 2.15572e-15 0)
(3 1.77288e-15 0)
(3 2.13401e-15 0)
(3 2.03023e-15 0)
(3 4.58846e-15 0)
(3 5.85647e-15 0)
(3 7.21562e-15 0)
(3 3.46678e-15 0)
(3 -1.00886e-15 0)
(3 9.06542e-14 0)
(3 1.63217e-11 0)
(3 1.92331e-10 0)
(2.99986 2.7324e-08 0)
(2.95181 -1.21881e-06 0)
(1.73515 -1.48952e-06 0)
(3 1.5612e-15 0)
(3 3.22258e-15 0)
(3 2.0742e-15 0)
(3 8.08445e-16 0)
(3 -3.67239e-15 0)
(3 -5.23165e-15 0)
(3 -2.01161e-15 0)
(3 -4.06982e-16 0)
(3 -1.12411e-15 0)
(3 2.46068e-15 0)
(3 9.30572e-15 0)
(3 1.18277e-14 0)
(3 9.81419e-15 0)
(3 4.88277e-15 0)
(3 1.98375e-15 0)
(3 1.77808e-15 0)
(3 -4.57944e-15 0)
(3 -6.69417e-15 0)
(3 -6.38699e-15 0)
(3 -8.19594e-15 0)
(3 -6.0675e-15 0)
(3 -4.27167e-15 0)
(3 -2.28649e-15 0)
(3 -2.63576e-15 0)
(3 -6.65526e-15 0)
(3 -8.6678e-15 0)
(3 -1.15731e-14 0)
(3 -1.05429e-14 0)
(3 -9.13229e-15 0)
(3 -9.93507e-15 0)
(3 -7.17756e-15 0)
(3 -6.15246e-15 0)
(3 -3.46895e-15 0)
(3 -2.33544e-15 0)
(3 -3.35619e-15 0)
(3 -4.2794e-15 0)
(3 -5.14625e-15 0)
(3 -2.97495e-15 0)
(3 -2.20658e-15 0)
(3 -2.82818e-15 0)
(3 -6.45032e-17 0)
(3 4.86232e-14 0)
(3 1.2141e-12 0)
(3 1.85312e-11 0)
(3 1.14196e-10 0)
(2.99986 9.72235e-09 0)
(2.95186 1.12732e-05 0)
(1.73514 -7.058e-06 0)
(3 -2.44039e-15 0)
(3 -3.41252e-15 0)
(3 -2.93235e-15 0)
(3 -4.06235e-15 0)
(3 -4.69345e-15 0)
(3 -8.59128e-15 0)
(3 -8.44428e-15 0)
(3 -4.8769e-15 0)
(3 -3.85203e-15 0)
(3 -4.31627e-15 0)
(3 1.73493e-15 0)
(3 3.79744e-15 0)
(3 4.05679e-15 0)
(3 1.88788e-15 0)
(3 2.17777e-15 0)
(3 2.42528e-16 0)
(3 -5.55765e-15 0)
(3 -5.90439e-15 0)
(3 -8.54541e-15 0)
(3 -9.05476e-15 0)
(3 -9.57537e-15 0)
(3 -9.2576e-15 0)
(3 -9.71299e-15 0)
(3 -1.12224e-14 0)
(3 -9.41304e-15 0)
(3 -8.99648e-15 0)
(3 -9.98467e-15 0)
(3 -9.35348e-15 0)
(3 -8.35655e-15 0)
(3 -7.87324e-15 0)
(3 -7.37133e-15 0)
(3 -6.0666e-15 0)
(3 -7.60127e-15 0)
(3 -1.18025e-14 0)
(3 -1.32994e-14 0)
(3 -1.22415e-14 0)
(3 -1.05232e-14 0)
(3 -7.70577e-15 0)
(3 -3.09031e-15 0)
(3 -1.21584e-15 0)
(3 -1.17313e-14 0)
(3 -2.74817e-14 0)
(3 1.42922e-12 0)
(3 1.84279e-11 0)
(3 1.50548e-10 0)
(2.99986 2.96823e-08 0)
(2.95195 1.73482e-05 0)
(1.73513 -9.36626e-06 0)
(3 4.95502e-16 0)
(3 -7.78455e-16 0)
(3 -2.4151e-15 0)
(3 -1.24587e-15 0)
(3 -8.70368e-16 0)
(3 -9.23357e-17 0)
(3 -7.83863e-16 0)
(3 -6.09931e-16 0)
(3 1.50619e-15 0)
(3 2.02109e-15 0)
(3 -1.49886e-15 0)
(3 -4.64662e-15 0)
(3 -5.4804e-15 0)
(3 -2.81663e-15 0)
(3 -1.25044e-15 0)
(3 1.71304e-15 0)
(3 6.5229e-15 0)
(3 7.14576e-15 0)
(3 6.0845e-15 0)
(3 7.03749e-15 0)
(3 6.6443e-15 0)
(3 2.08173e-15 0)
(3 -3.09303e-16 0)
(3 -1.06412e-15 0)
(3 -1.49651e-15 0)
(3 -2.35798e-15 0)
(3 -2.51056e-15 0)
(3 -4.59086e-15 0)
(3 -5.54012e-15 0)
(3 -2.53319e-15 0)
(3 -2.11144e-15 0)
(3 -1.33288e-15 0)
(3 -6.03977e-15 0)
(3 -7.53683e-15 0)
(3 -5.02414e-15 0)
(3 -5.32253e-15 0)
(3 -2.47245e-15 0)
(3 -4.74658e-16 0)
(3 6.65556e-16 0)
(3 -1.79374e-16 0)
(3 -8.35439e-16 0)
(3 -2.83383e-14 0)
(3 5.50384e-13 0)
(3 1.30923e-11 0)
(3 1.06445e-10 0)
(2.99986 -8.05156e-09 0)
(2.95194 2.51203e-06 0)
(1.73513 -6.78155e-07 0)
(3 1.10635e-15 0)
(3 5.20869e-16 0)
(3 -3.98512e-16 0)
(3 -1.60976e-15 0)
(3 -1.1374e-15 0)
(3 -1.79824e-15 0)
(3 -3.67672e-15 0)
(3 -4.67118e-15 0)
(3 -2.40806e-15 0)
(3 -9.93054e-16 0)
(3 -2.57723e-15 0)
(3 -1.90792e-15 0)
(3 -2.13671e-15 0)
(3 -6.41892e-16 0)
(3 1.71189e-15 0)
(3 2.11344e-15 0)
(3 2.95479e-15 0)
(3 2.85111e-15 0)
(3 3.59411e-15 0)
(3 3.7364e-15 0)
(3 2.17609e-15 0)
(3 1.2081e-15 0)
(3 2.21762e-15 0)
(3 5.77501e-15 0)
(3 7.45112e-15 0)
(3 8.65552e-15 0)
(3 8.91461e-15 0)
(3 1.10187e-14 0)
(3 7.00095e-15 0)
(3 5.78971e-15 0)
(3 2.41451e-15 0)
(3 1.57625e-15 0)
(3 -3.00555e-17 0)
(3 1.61926e-15 0)
(3 1.90175e-15 0)
(3 1.80299e-15 0)
(3 7.88216e-16 0)
(3 3.14568e-15 0)
(3 1.03394e-15 0)
(3 -7.20231e-16 0)
(3 -1.40328e-15 0)
(3 -2.72684e-14 0)
(3 -1.05968e-13 0)
(3 7.04477e-12 0)
(3 -1.03823e-10 0)
(2.99986 -3.49767e-08 0)
(2.95196 -7.79402e-06 0)
(1.73567 0.000578231 0)
(3 -4.84112e-16 0)
(3 1.33396e-15 0)
(3 -1.41381e-15 0)
(3 -3.52016e-15 0)
(3 -6.94435e-15 0)
(3 -9.6198e-15 0)
(3 -5.87214e-15 0)
(3 -2.74836e-15 0)
(3 -2.90385e-15 0)
(3 -5.64581e-15 0)
(3 -9.10134e-15 0)
(3 -8.24168e-15 0)
(3 -6.17854e-15 0)
(3 -6.78759e-15 0)
(3 -6.56326e-15 0)
(3 -5.76335e-15 0)
(3 -1.7164e-15 0)
(3 9.92158e-16 0)
(3 -1.79988e-16 0)
(3 -5.25727e-15 0)
(3 -5.83203e-15 0)
(3 -2.29558e-15 0)
(3 -7.87967e-17 0)
(3 1.73838e-15 0)
(3 5.33364e-17 0)
(3 3.34375e-15 0)
(3 4.11145e-15 0)
(3 4.32083e-15 0)
(3 3.08706e-15 0)
(3 -1.04143e-15 0)
(3 -1.2839e-15 0)
(3 1.19753e-15 0)
(3 7.24891e-15 0)
(3 9.36714e-15 0)
(3 6.1389e-15 0)
(3 4.64116e-15 0)
(3 5.50938e-16 0)
(3 -1.78639e-15 0)
(3 -1.76875e-15 0)
(3 -2.22646e-15 0)
(3 1.8997e-16 0)
(3 -3.36858e-15 0)
(3 -1.31507e-14 0)
(3 4.33572e-12 0)
(3 -4.45839e-10 0)
(2.99986 2.74481e-07 0)
(2.95234 -0.000130407 0)
(1.74376 0.00970424 0)
(3 -3.01569e-16 0)
(3 7.21132e-16 0)
(3 1.41565e-15 0)
(3 5.19903e-15 0)
(3 1.0718e-15 0)
(3 9.63435e-16 0)
(3 1.84e-15 0)
(3 -4.90603e-17 0)
(3 -1.36668e-15 0)
(3 -2.23693e-15 0)
(3 -1.4311e-15 0)
(3 -2.68854e-15 0)
(3 -4.45633e-15 0)
(3 -7.2549e-15 0)
(3 -7.11572e-15 0)
(3 -4.58406e-15 0)
(3 4.5066e-15 0)
(3 3.81425e-15 0)
(3 2.92543e-15 0)
(3 -7.38864e-16 0)
(3 -3.79149e-15 0)
(3 -5.14398e-15 0)
(3 -3.85163e-15 0)
(3 -1.59321e-15 0)
(3 -2.07016e-15 0)
(3 -3.73582e-15 0)
(3 -1.14597e-15 0)
(3 -4.59692e-15 0)
(3 -5.17506e-15 0)
(3 -3.22906e-15 0)
(3 -1.31489e-15 0)
(3 -3.22624e-17 0)
(3 -5.89832e-16 0)
(3 -1.6348e-15 0)
(3 5.02363e-16 0)
(3 1.23368e-16 0)
(3 1.65837e-15 0)
(3 2.64712e-17 0)
(3 -9.38485e-16 0)
(3 -7.77996e-16 0)
(3 1.01562e-15 0)
(3 2.81386e-14 0)
(3 3.76031e-13 0)
(3 1.17099e-11 0)
(3 -2.35397e-09 0)
(2.99986 2.7485e-06 0)
(2.95432 -0.00129953 0)
(1.78279 0.0641863 0)
(3 -2.89419e-16 0)
(3 -5.66721e-15 0)
(3 -3.99601e-15 0)
(3 -5.6734e-17 0)
(3 5.28851e-15 0)
(3 8.39719e-15 0)
(3 7.56206e-15 0)
(3 4.46029e-15 0)
(3 2.43126e-15 0)
(3 3.4004e-15 0)
(3 1.74727e-15 0)
(3 1.62411e-15 0)
(3 1.05335e-15 0)
(3 1.64543e-15 0)
(3 6.05082e-15 0)
(3 3.89185e-15 0)
(3 1.95369e-15 0)
(3 7.59046e-16 0)
(3 4.93108e-16 0)
(3 5.66085e-15 0)
(3 4.11147e-15 0)
(3 -1.15714e-15 0)
(3 -3.84644e-15 0)
(3 -6.7421e-15 0)
(3 -5.00372e-15 0)
(3 -6.88312e-15 0)
(3 -1.0536e-14 0)
(3 -7.97742e-15 0)
(3 -5.35632e-15 0)
(3 -3.77582e-15 0)
(3 -5.72731e-15 0)
(3 -7.58166e-15 0)
(3 -8.60124e-15 0)
(3 -7.58212e-15 0)
(3 -4.88345e-15 0)
(3 -3.49295e-15 0)
(3 -2.28707e-15 0)
(3 -1.96863e-15 0)
(3 1.31534e-17 0)
(3 1.60102e-15 0)
(3 4.80368e-15 0)
(3 -2.61638e-14 0)
(3 6.23208e-13 0)
(3 2.9142e-11 0)
(3 -1.11113e-08 0)
(2.99986 1.15477e-05 0)
(2.95708 -0.00609576 0)
(1.93719 0.256267 0)
(3 9.76434e-16 0)
(3 3.09944e-16 0)
(3 -2.40262e-15 0)
(3 -1.14203e-15 0)
(3 -3.86174e-17 0)
(3 -5.0682e-16 0)
(3 3.03514e-16 0)
(3 7.71209e-16 0)
(3 1.57845e-15 0)
(3 5.06984e-15 0)
(3 5.32352e-15 0)
(3 6.74947e-15 0)
(3 8.74186e-15 0)
(3 9.96376e-15 0)
(3 5.06367e-15 0)
(3 2.46512e-15 0)
(3 -2.00768e-15 0)
(3 -3.11454e-15 0)
(3 -3.74818e-15 0)
(3 -1.87105e-16 0)
(3 2.86508e-15 0)
(3 1.027e-14 0)
(3 1.34186e-14 0)
(3 8.27135e-15 0)
(3 2.07381e-15 0)
(3 1.5767e-15 0)
(3 1.35186e-15 0)
(3 2.6587e-15 0)
(3 3.81451e-15 0)
(3 3.23037e-15 0)
(3 3.27475e-15 0)
(3 4.34896e-15 0)
(3 3.81017e-15 0)
(3 4.40343e-15 0)
(3 1.06653e-15 0)
(3 -4.98904e-16 0)
(3 2.40115e-17 0)
(3 2.52481e-17 0)
(3 7.80563e-16 0)
(3 3.18657e-16 0)
(3 1.55703e-15 0)
(3 1.75323e-14 0)
(3 5.25871e-14 0)
(3 3.43567e-11 0)
(3 -2.82919e-09 0)
(2.99987 1.62394e-05 0)
(2.9628 -0.00662954 0)
(2.52102 0.589665 0)
(3 -7.94329e-17 0)
(3 5.33065e-16 0)
(3 1.60076e-15 0)
(3 9.96099e-16 0)
(3 -7.58898e-16 0)
(3 -2.76753e-15 0)
(3 -4.16502e-15 0)
(3 -3.13816e-15 0)
(3 -3.02686e-15 0)
(3 -2.57002e-15 0)
(3 1.37258e-15 0)
(3 2.34056e-15 0)
(3 3.01317e-15 0)
(3 2.14484e-15 0)
(3 -6.15063e-15 0)
(3 -6.30116e-15 0)
(3 -6.78495e-15 0)
(3 -6.25119e-15 0)
(3 -6.54788e-15 0)
(3 -5.99951e-15 0)
(3 -4.87878e-15 0)
(3 -5.43386e-15 0)
(3 -2.02269e-15 0)
(3 3.87971e-15 0)
(3 3.6042e-15 0)
(3 2.45775e-15 0)
(3 1.06983e-15 0)
(3 -8.07821e-16 0)
(3 2.42163e-16 0)
(3 1.16408e-15 0)
(3 1.85898e-15 0)
(3 2.88475e-15 0)
(3 1.91397e-15 0)
(3 4.1923e-16 0)
(3 -1.1828e-15 0)
(3 -2.49361e-15 0)
(3 -1.29078e-15 0)
(3 -1.48375e-15 0)
(3 -8.25544e-16 0)
(3 -2.52974e-15 0)
(3 -2.37237e-15 0)
(3 3.99198e-14 0)
(3 -8.73777e-13 0)
(3 3.69513e-11 0)
(3 7.00439e-09 0)
(2.99994 1.10265e-05 0)
(2.9818 -0.000507513 0)
(2.25279 0.592818 0)
(3 -4.47188e-16 0)
(3 3.4472e-15 0)
(3 5.99489e-15 0)
(3 4.20992e-15 0)
(3 2.07168e-15 0)
(3 1.04711e-15 0)
(3 -1.07099e-15 0)
(3 -1.73943e-15 0)
(3 -1.31506e-15 0)
(3 5.08005e-16 0)
(3 1.27779e-15 0)
(3 1.24616e-15 0)
(3 6.96754e-16 0)
(3 1.71642e-15 0)
(3 7.50704e-16 0)
(3 -1.54724e-15 0)
(3 -4.58377e-15 0)
(3 -4.55054e-15 0)
(3 -1.18768e-15 0)
(3 1.69908e-15 0)
(3 2.82937e-15 0)
(3 -1.23681e-15 0)
(3 -2.64013e-15 0)
(3 -1.63975e-15 0)
(3 4.74005e-17 0)
(3 8.36946e-16 0)
(3 2.38862e-16 0)
(3 2.85851e-16 0)
(3 1.82609e-15 0)
(3 2.98959e-15 0)
(3 3.52975e-15 0)
(3 2.02646e-15 0)
(3 4.76954e-16 0)
(3 -3.83455e-15 0)
(3 -3.28019e-15 0)
(3 -3.45059e-16 0)
(3 -7.6462e-17 0)
(3 -1.42748e-15 0)
(3 -6.64986e-15 0)
(3 -6.64483e-15 0)
(3 -6.96114e-15 0)
(3 -4.18197e-14 0)
(3 -5.24844e-13 0)
(3 4.42605e-12 0)
(3 5.6559e-09 0)
(2.99999 3.25157e-06 0)
(2.9972 0.000244441 0)
(2.65853 0.149066 0)
(3 7.32973e-16 0)
(3 2.55947e-15 0)
(3 -6.22313e-16 0)
(3 1.86794e-15 0)
(3 2.70475e-15 0)
(3 4.75607e-15 0)
(3 4.90088e-15 0)
(3 3.75639e-15 0)
(3 2.86857e-15 0)
(3 1.27672e-15 0)
(3 -9.90207e-16 0)
(3 -3.02443e-15 0)
(3 -3.1171e-15 0)
(3 -2.28807e-15 0)
(3 -1.52607e-15 0)
(3 -1.72161e-15 0)
(3 -5.30756e-15 0)
(3 -4.88127e-15 0)
(3 -2.27162e-15 0)
(3 -1.25533e-16 0)
(3 1.28955e-16 0)
(3 -6.80613e-17 0)
(3 -1.04587e-15 0)
(3 -2.65658e-17 0)
(3 1.54684e-15 0)
(3 2.33361e-15 0)
(3 2.63738e-15 0)
(3 3.03365e-15 0)
(3 4.28057e-15 0)
(3 6.54747e-15 0)
(3 7.28589e-15 0)
(3 6.32836e-15 0)
(3 3.75096e-15 0)
(3 1.8271e-15 0)
(3 2.50614e-15 0)
(3 3.91574e-15 0)
(3 3.80447e-15 0)
(3 1.98542e-15 0)
(3 1.96255e-15 0)
(3 2.28563e-15 0)
(3 2.35942e-15 0)
(3 -1.55862e-14 0)
(3 9.0277e-14 0)
(3 -2.10439e-11 0)
(3 1.28299e-09 0)
(3 3.72217e-07 0)
(2.99969 6.31813e-05 0)
(2.95171 0.0106826 0)
(3 -1.76487e-15 0)
(3 -4.57903e-15 0)
(3 -8.72067e-15 0)
(3 -8.67544e-15 0)
(3 -4.83789e-15 0)
(3 1.99165e-15 0)
(3 9.76312e-15 0)
(3 1.04713e-14 0)
(3 7.92086e-15 0)
(3 -3.21e-16 0)
(3 -9.11043e-15 0)
(3 -8.37364e-15 0)
(3 -5.91022e-15 0)
(3 -3.12251e-15 0)
(3 -3.57826e-15 0)
(3 -6.37236e-15 0)
(3 -3.75182e-15 0)
(3 -3.02989e-15 0)
(3 -4.90398e-15 0)
(3 -4.04444e-15 0)
(3 -5.62268e-15 0)
(3 -4.33699e-15 0)
(3 -6.53417e-15 0)
(3 -8.40803e-15 0)
(3 -9.82602e-15 0)
(3 -1.0315e-14 0)
(3 -7.20633e-15 0)
(3 -3.89114e-15 0)
(3 -5.3401e-15 0)
(3 -7.14662e-15 0)
(3 -5.62066e-15 0)
(3 -3.84333e-15 0)
(3 -1.16138e-15 0)
(3 1.74722e-15 0)
(3 2.59294e-16 0)
(3 -3.28711e-15 0)
(3 -4.47625e-15 0)
(3 -3.54169e-15 0)
(3 -1.46953e-15 0)
(3 -6.19735e-16 0)
(3 -1.23076e-15 0)
(3 -7.11389e-15 0)
(3 3.19583e-14 0)
(3 -2.1321e-11 0)
(3 8.57502e-11 0)
(3 1.92045e-08 0)
(2.99999 3.02629e-06 0)
(2.99761 0.000702181 0)
(3 -3.99359e-16 0)
(3 -1.28396e-15 0)
(3 -8.88803e-16 0)
(3 -2.71928e-15 0)
(3 -5.68718e-15 0)
(3 -6.44581e-15 0)
(3 -5.8888e-15 0)
(3 -5.21586e-15 0)
(3 -2.69463e-15 0)
(3 2.94927e-16 0)
(3 -2.08969e-15 0)
(3 -3.57321e-15 0)
(3 -6.1105e-15 0)
(3 -3.24913e-15 0)
(3 -1.53399e-15 0)
(3 -1.83471e-15 0)
(3 -3.43132e-15 0)
(3 -1.19364e-15 0)
(3 -1.08219e-15 0)
(3 -2.53413e-16 0)
(3 -1.08572e-15 0)
(3 -3.47991e-15 0)
(3 -5.93783e-15 0)
(3 -3.33671e-15 0)
(3 -2.09396e-15 0)
(3 3.27907e-15 0)
(3 5.8775e-15 0)
(3 2.3362e-15 0)
(3 6.24167e-16 0)
(3 1.48156e-15 0)
(3 3.97307e-15 0)
(3 6.20184e-15 0)
(3 5.94223e-15 0)
(3 1.89824e-15 0)
(3 1.45328e-15 0)
(3 -5.53433e-16 0)
(3 -4.64621e-16 0)
(3 1.29009e-15 0)
(3 8.47677e-17 0)
(3 8.33858e-16 0)
(3 5.00684e-16 0)
(3 3.6699e-16 0)
(3 -4.74273e-15 0)
(3 -1.1874e-11 0)
(3 1.35812e-11 0)
(3 -1.9286e-09 0)
(3 7.71872e-08 0)
(2.99995 1.67953e-05 0)
(3 -6.1828e-16 0)
(3 1.04866e-15 0)
(3 1.32546e-15 0)
(3 -1.56499e-15 0)
(3 -3.04201e-15 0)
(3 -1.35426e-14 0)
(3 -1.60651e-14 0)
(3 -1.10154e-14 0)
(3 -5.95466e-15 0)
(3 -3.30129e-15 0)
(3 -3.77335e-16 0)
(3 -6.76738e-16 0)
(3 -5.25138e-15 0)
(3 -1.05457e-14 0)
(3 -1.1628e-14 0)
(3 -5.65988e-15 0)
(3 -4.18626e-15 0)
(3 -2.26528e-15 0)
(3 -9.36474e-17 0)
(3 6.14476e-16 0)
(3 1.42472e-15 0)
(3 1.56484e-16 0)
(3 1.93453e-15 0)
(3 2.17744e-15 0)
(3 2.93109e-15 0)
(3 4.78661e-15 0)
(3 3.70448e-15 0)
(3 3.25309e-15 0)
(3 2.65101e-15 0)
(3 4.92748e-15 0)
(3 2.80925e-15 0)
(3 3.95654e-15 0)
(3 4.21051e-15 0)
(3 1.8475e-15 0)
(3 7.46871e-15 0)
(3 1.23651e-14 0)
(3 8.60976e-15 0)
(3 4.79307e-15 0)
(3 5.15718e-15 0)
(3 4.52881e-15 0)
(3 3.92943e-15 0)
(3 3.20813e-15 0)
(3 4.19029e-15 0)
(3 -2.0512e-12 0)
(3 1.96686e-13 0)
(3 -1.67799e-09 0)
(3 -1.8931e-09 0)
(3 1.67582e-07 0)
(3 4.0164e-16 0)
(3 -1.51455e-16 0)
(3 1.3309e-15 0)
(3 -1.97666e-15 0)
(3 -6.78403e-16 0)
(3 3.05374e-15 0)
(3 3.49734e-15 0)
(3 6.38376e-16 0)
(3 1.24481e-15 0)
(3 1.68402e-15 0)
(3 4.31831e-15 0)
(3 7.12889e-15 0)
(3 8.26939e-15 0)
(3 7.09478e-15 0)
(3 4.79519e-15 0)
(3 2.64716e-15 0)
(3 1.83936e-15 0)
(3 -4.21476e-16 0)
(3 -8.79933e-16 0)
(3 -3.01935e-15 0)
(3 -1.66172e-15 0)
(3 3.6692e-16 0)
(3 2.57619e-15 0)
(3 -9.79638e-16 0)
(3 -6.7154e-15 0)
(3 -8.31999e-15 0)
(3 -5.7635e-15 0)
(3 -1.30884e-15 0)
(3 1.50822e-16 0)
(3 -5.62422e-15 0)
(3 -9.14822e-15 0)
(3 -1.268e-14 0)
(3 -1.03333e-14 0)
(3 -4.45714e-15 0)
(3 -3.47328e-15 0)
(3 -2.09464e-15 0)
(3 -8.71903e-17 0)
(3 -1.77898e-15 0)
(3 -1.95703e-15 0)
(3 -3.77683e-15 0)
(3 -3.59877e-15 0)
(3 -1.56752e-15 0)
(3 -1.71972e-15 0)
(3 -1.09568e-13 0)
(3 -2.01906e-12 0)
(3 -8.66417e-10 0)
(3 -8.81988e-10 0)
(3 8.78331e-11 0)
(3 3.00411e-16 0)
(3 1.70023e-15 0)
(3 3.0534e-15 0)
(3 4.73849e-15 0)
(3 3.12308e-15 0)
(3 4.4569e-15 0)
(3 5.56445e-15 0)
(3 5.1965e-15 0)
(3 5.77344e-15 0)
(3 1.12898e-14 0)
(3 8.95552e-15 0)
(3 9.72391e-15 0)
(3 8.23729e-15 0)
(3 5.60475e-15 0)
(3 7.41711e-15 0)
(3 7.10288e-15 0)
(3 9.02477e-15 0)
(3 5.31201e-15 0)
(3 4.60134e-15 0)
(3 1.4086e-15 0)
(3 -1.20255e-15 0)
(3 -2.11907e-15 0)
(3 -2.62681e-15 0)
(3 -7.85594e-16 0)
(3 1.41943e-15 0)
(3 -4.88204e-16 0)
(3 -2.23471e-15 0)
(3 -4.65111e-15 0)
(3 -4.38011e-15 0)
(3 -6.5164e-15 0)
(3 -5.02741e-15 0)
(3 -4.35378e-15 0)
(3 -5.57047e-15 0)
(3 -3.61777e-15 0)
(3 -2.33056e-15 0)
(3 -4.83736e-15 0)
(3 -2.12225e-15 0)
(3 -6.98623e-15 0)
(3 -1.01433e-14 0)
(3 -1.2133e-14 0)
(3 -9.84925e-15 0)
(3 -5.23692e-15 0)
(3 -2.11809e-15 0)
(3 -8.13258e-16 0)
(3 -4.20211e-13 0)
(3 -1.16798e-10 0)
(3 -3.39682e-10 0)
(3 -1.8324e-10 0)
(3 -1.63146e-16 0)
(3 1.36471e-15 0)
(3 2.38754e-15 0)
(3 1.88855e-15 0)
(3 1.2726e-15 0)
(3 6.71416e-16 0)
(3 4.29501e-16 0)
(3 1.2839e-15 0)
(3 3.65792e-16 0)
(3 -1.57488e-15 0)
(3 -1.97238e-15 0)
(3 -1.06191e-15 0)
(3 -6.19282e-16 0)
(3 2.03219e-15 0)
(3 3.53421e-15 0)
(3 4.90175e-15 0)
(3 3.68811e-15 0)
(3 2.90723e-15 0)
(3 8.83186e-16 0)
(3 -4.34804e-16 0)
(3 7.48707e-17 0)
(3 -4.12888e-16 0)
(3 -3.84666e-16 0)
(3 1.75717e-15 0)
(3 2.01768e-15 0)
(3 1.21811e-15 0)
(3 -2.20765e-15 0)
(3 -5.49404e-15 0)
(3 -6.88254e-15 0)
(3 -3.82055e-15 0)
(3 -4.00461e-15 0)
(3 -3.29113e-15 0)
(3 -3.108e-15 0)
(3 -3.52076e-15 0)
(3 -1.79064e-15 0)
(3 -9.09008e-16 0)
(3 -3.48934e-15 0)
(3 -5.02563e-15 0)
(3 -2.43151e-15 0)
(3 4.6423e-16 0)
(3 1.89563e-15 0)
(3 -3.94884e-15 0)
(3 -3.44652e-15 0)
(3 -5.28799e-15 0)
(3 -2.33697e-14 0)
(3 -5.36738e-12 0)
(3 -4.15766e-11 0)
(3 -4.42936e-11 0)
(3 4.00202e-16 0)
(3 -3.20074e-15 0)
(3 -4.04409e-15 0)
(3 -4.56899e-15 0)
(3 -1.98253e-15 0)
(3 4.83034e-16 0)
(3 -3.0157e-16 0)
(3 -6.07734e-15 0)
(3 -4.32535e-15 0)
(3 -6.04691e-15 0)
(3 -4.43614e-15 0)
(3 -5.18619e-15 0)
(3 -3.58848e-15 0)
(3 -8.21997e-16 0)
(3 5.93956e-16 0)
(3 1.46413e-15 0)
(3 5.24599e-15 0)
(3 6.77023e-15 0)
(3 4.0597e-15 0)
(3 1.10458e-15 0)
(3 -9.59775e-17 0)
(3 1.6225e-15 0)
(3 1.25818e-15 0)
(3 9.21295e-16 0)
(3 7.80523e-16 0)
(3 6.22621e-16 0)
(3 -7.95137e-16 0)
(3 -3.96152e-15 0)
(3 -4.46076e-15 0)
(3 -2.99514e-15 0)
(3 -3.46103e-15 0)
(3 -1.2205e-15 0)
(3 1.43241e-15 0)
(3 2.07268e-17 0)
(3 1.30147e-15 0)
(3 3.11593e-15 0)
(3 6.3904e-15 0)
(3 6.20683e-15 0)
(3 8.03707e-16 0)
(3 5.71722e-15 0)
(3 8.30619e-15 0)
(3 5.13236e-15 0)
(3 2.22949e-15 0)
(3 -4.7905e-16 0)
(3 -5.40594e-16 0)
(3 -4.45915e-14 0)
(3 -9.69689e-13 0)
(3 -3.32346e-12 0)
(3 -1.48523e-15 0)
(3 -2.09797e-15 0)
(3 -4.50146e-15 0)
(3 -6.63619e-16 0)
(3 -9.42181e-16 0)
(3 -2.93645e-15 0)
(3 -2.81274e-15 0)
(3 -2.21408e-15 0)
(3 -3.18819e-15 0)
(3 -5.97893e-15 0)
(3 -1.87045e-15 0)
(3 -1.9129e-16 0)
(3 1.93399e-15 0)
(3 3.51179e-16 0)
(3 -1.21535e-15 0)
(3 -1.17148e-16 0)
(3 3.67868e-15 0)
(3 4.37464e-15 0)
(3 6.75562e-15 0)
(3 6.86535e-15 0)
(3 1.3827e-15 0)
(3 -4.1534e-16 0)
(3 2.21192e-16 0)
(3 3.99251e-16 0)
(3 1.27138e-15 0)
(3 1.62382e-15 0)
(3 -6.63335e-16 0)
(3 -1.1898e-15 0)
(3 -9.26595e-16 0)
(3 -2.96331e-15 0)
(3 -2.74028e-15 0)
(3 -2.08381e-15 0)
(3 2.74378e-15 0)
(3 8.30357e-15 0)
(3 9.67119e-15 0)
(3 5.47245e-15 0)
(3 4.29757e-15 0)
(3 5.80832e-15 0)
(3 1.75771e-15 0)
(3 -2.21884e-15 0)
(3 4.40717e-15 0)
(3 7.77855e-15 0)
(3 6.64502e-15 0)
(3 1.20658e-14 0)
(3 1.58874e-14 0)
(3 1.15766e-14 0)
(3 6.65055e-15 0)
(3 -3.16594e-14 0)
(3 -5.62962e-16 0)
(3 2.22723e-15 0)
(3 2.51953e-15 0)
(3 2.56369e-15 0)
(3 4.04151e-15 0)
(3 4.29595e-15 0)
(3 2.45528e-15 0)
(3 7.55565e-16 0)
(3 -2.22595e-15 0)
(3 -1.15325e-15 0)
(3 8.40151e-16 0)
(3 1.7883e-15 0)
(3 1.48689e-15 0)
(3 2.78612e-15 0)
(3 -8.17506e-16 0)
(3 -2.47012e-15 0)
(3 -6.20691e-15 0)
(3 -7.835e-15 0)
(3 -9.10502e-15 0)
(3 -5.2388e-15 0)
(3 -7.26037e-15 0)
(3 -9.45316e-15 0)
(3 -7.74169e-15 0)
(3 -4.96929e-15 0)
(3 -7.26261e-15 0)
(3 -5.7748e-15 0)
(3 -3.22345e-15 0)
(3 -3.08925e-15 0)
(3 -2.48572e-15 0)
(3 -2.18313e-15 0)
(3 9.06525e-17 0)
(3 -8.25542e-16 0)
(3 -2.95148e-15 0)
(3 -1.58143e-15 0)
(3 -3.05448e-15 0)
(3 -2.34364e-15 0)
(3 -5.54774e-15 0)
(3 -5.27161e-15 0)
(3 -6.84375e-16 0)
(3 -4.00853e-15 0)
(3 -6.7045e-15 0)
(3 -8.22141e-15 0)
(3 -6.50674e-15 0)
(3 -4.67937e-15 0)
(3 -1.52511e-15 0)
(3 8.14324e-16 0)
(3 2.06184e-15 0)
(3 2.01894e-15 0)
(3 2.82392e-15 0)
(3 3.52378e-15 0)
(3 1.5109e-15 0)
(3 1.08802e-16 0)
(3 -1.34108e-15 0)
(3 2.66469e-15 0)
(3 2.7783e-15 0)
(3 2.52792e-15 0)
(3 7.12788e-16 0)
(3 1.21879e-16 0)
(3 -4.55436e-15 0)
(3 -5.71936e-15 0)
(3 -7.38634e-15 0)
(3 -6.48979e-15 0)
(3 -7.11511e-15 0)
(3 -3.02267e-15 0)
(3 -2.8938e-16 0)
(3 -3.79054e-16 0)
(3 -6.82763e-15 0)
(3 -7.76117e-15 0)
(3 -7.91113e-15 0)
(3 -8.34325e-15 0)
(3 -9.41295e-15 0)
(3 -8.00336e-15 0)
(3 -7.53799e-15 0)
(3 -6.25675e-15 0)
(3 -4.31935e-15 0)
(3 -3.87831e-15 0)
(3 -9.96312e-16 0)
(3 3.72106e-15 0)
(3 6.52595e-15 0)
(3 2.54694e-15 0)
(3 -2.48747e-15 0)
(3 -7.89217e-15 0)
(3 -9.43966e-15 0)
(3 -4.89773e-15 0)
(3 -3.81782e-16 0)
(3 -4.47013e-15 0)
(3 -4.37268e-16 0)
(3 1.52219e-15 0)
(3 -3.99215e-16 0)
(3 -2.60551e-15 0)
(3 -5.18838e-15 0)
(3 -6.58526e-15 0)
(3 -8.49449e-15 0)
(3 -9.03523e-15 0)
(3 -6.40417e-15 0)
(3 -4.08683e-15 0)
(3 -5.06968e-16 0)
(3 -1.9848e-15 0)
(3 -9.54018e-16 0)
(3 1.26183e-16 0)
(3 -3.99519e-16 0)
(3 6.44059e-16 0)
(3 5.06738e-15 0)
(3 8.78103e-15 0)
(3 6.35666e-15 0)
(3 -2.22581e-15 0)
(3 -6.34567e-15 0)
(3 -6.45366e-15 0)
(3 -7.87042e-15 0)
(3 -7.63765e-15 0)
(3 -2.97762e-15 0)
(3 -2.26115e-15 0)
(3 -7.29756e-16 0)
(3 -3.04271e-17 0)
(3 -2.85007e-15 0)
(3 -4.07568e-15 0)
(3 -2.00046e-15 0)
(3 1.75365e-15 0)
(3 4.77448e-16 0)
(3 -2.22933e-15 0)
(3 -2.06257e-15 0)
(3 -2.88356e-15 0)
(3 -1.82312e-15 0)
(3 -3.33424e-16 0)
(3 2.6233e-16 0)
(3 3.07197e-15 0)
(3 2.79092e-15 0)
(3 -1.25855e-15 0)
(3 -1.53154e-15 0)
(3 -2.83744e-15 0)
(3 -6.79104e-15 0)
(3 -8.85438e-15 0)
(3 -4.70823e-15 0)
(3 5.90778e-16 0)
(3 3.58428e-15 0)
(3 4.39876e-15 0)
(3 3.50524e-15 0)
(3 5.43719e-15 0)
(3 4.29554e-15 0)
(3 6.82678e-16 0)
(3 -2.22305e-15 0)
(3 -2.64654e-15 0)
(3 -1.79668e-15 0)
(3 -3.00015e-15 0)
(3 -1.44814e-15 0)
(3 -6.34943e-16 0)
(3 2.65301e-15 0)
(3 5.57254e-15 0)
(3 6.49831e-15 0)
(3 8.48952e-15 0)
(3 5.91793e-15 0)
(3 3.7843e-15 0)
(3 5.53716e-15 0)
(3 1.16656e-14 0)
(3 1.31934e-14 0)
(3 8.13188e-15 0)
(3 3.55026e-15 0)
(3 4.03675e-15 0)
(3 4.19626e-15 0)
(3 2.78601e-15 0)
(3 2.29596e-15 0)
(3 3.92588e-15 0)
(3 6.44228e-15 0)
(3 5.59825e-15 0)
(3 5.5314e-15 0)
(3 8.9522e-15 0)
(3 9.87282e-15 0)
(3 8.60736e-15 0)
(3 5.03114e-15 0)
(3 2.70391e-15 0)
(3 3.2825e-15 0)
(3 2.83174e-15 0)
(3 7.01118e-16 0)
(3 -3.75421e-15 0)
(3 -2.96308e-15 0)
(3 4.69972e-15 0)
(3 8.62487e-15 0)
(3 9.31767e-15 0)
(3 6.85213e-15 0)
(3 5.84158e-15 0)
(3 2.16021e-15 0)
(3 6.01461e-15 0)
(3 3.78495e-15 0)
(3 3.82905e-15 0)
(3 3.02373e-15 0)
(3 3.58449e-15 0)
(3 2.74961e-15 0)
(3 3.68402e-16 0)
(3 1.21064e-15 0)
(3 -8.87762e-16 0)
(3 -3.49612e-15 0)
(3 -5.93155e-15 0)
(3 -4.21534e-16 0)
(3 7.54877e-17 0)
(3 -3.46411e-16 0)
(3 8.60993e-16 0)
(3 -4.34276e-16 0)
(3 -3.40949e-15 0)
(3 -2.61585e-15 0)
(3 7.27988e-16 0)
(3 1.25229e-15 0)
(3 1.30181e-15 0)
(3 7.45685e-15 0)
(3 7.58706e-15 0)
(3 9.08951e-15 0)
(3 9.34124e-15 0)
(3 7.63891e-15 0)
(3 4.96494e-15 0)
(3 3.8597e-15 0)
(3 4.26835e-15 0)
(3 7.90372e-15 0)
(3 8.89465e-15 0)
(3 7.51875e-15 0)
(3 5.84071e-15 0)
(3 6.35437e-15 0)
(3 7.07462e-15 0)
(3 9.44143e-15 0)
(3 1.48023e-14 0)
(3 1.449e-14 0)
(3 1.41251e-14 0)
(3 1.10862e-14 0)
(3 8.65648e-15 0)
(3 7.78843e-15 0)
(3 3.13036e-15 0)
(3 4.72997e-15 0)
(3 2.94249e-15 0)
(3 7.84358e-15 0)
(3 7.79907e-15 0)
(3 8.04801e-15 0)
(3 4.26265e-15 0)
(3 2.57428e-15 0)
(3 3.29354e-15 0)
(3 4.72487e-15 0)
(3 4.87418e-15 0)
(3 6.15263e-15 0)
(3 4.92766e-15 0)
(3 3.23112e-15 0)
(3 2.40307e-15 0)
(3 -8.36998e-16 0)
(3 2.8077e-16 0)
(3 -8.55495e-17 0)
(3 1.64734e-15 0)
(3 -5.99819e-16 0)
(3 -3.08232e-15 0)
(3 -2.91177e-15 0)
(3 -2.55759e-15 0)
(3 -2.01294e-15 0)
(3 -3.82117e-16 0)
(3 6.26501e-16 0)
(3 -7.41305e-17 0)
(3 2.74933e-16 0)
(3 -7.11767e-16 0)
(3 1.00678e-15 0)
(3 -5.65968e-18 0)
(3 -2.65414e-17 0)
(3 -2.75993e-15 0)
(3 -8.72486e-15 0)
(3 -1.00012e-14 0)
(3 -6.67263e-15 0)
(3 3.44866e-16 0)
(3 6.39591e-15 0)
(3 8.33147e-15 0)
(3 7.76982e-15 0)
(3 8.06622e-15 0)
(3 7.61604e-15 0)
(3 1.24961e-14 0)
(3 8.63158e-15 0)
(3 1.13234e-15 0)
(3 8.93047e-16 0)
(3 2.43968e-15 0)
(3 1.19351e-15 0)