/*--------------------------------*- C++ -*----------------------------------*\
| =========                 |                                                 |
| \\      /  F ield         | OpenFOAM: The Open Source CFD Toolbox           |
|  \\    /   O peration     | Version:  v1912                                 |
|   \\  /    A nd           | Website:  www.openfoam.com                      |
|    \\/     M anipulation  |                                                 |
\*---------------------------------------------------------------------------*/
FoamFile
{
    version     2.0;
    format      ascii;
    class       volScalarField;
    location    "12600";
    object      alphat;
}
// * * * * * * * * * * * * * * * * * * * * * * * * * * * * * * * * * * * * * //

dimensions      [1 -1 -1 0 0 0 0];


internalField   nonuniform List<scalar> 
7769
(
0.0008562833343156251
0.0008563501822785541
0.0008565042372576249
0.0008567522613101345
0.0008571654776334904
0.0008578108614058736
0.0008577606837181296
0.0002520021784530407
0.0004315333884703555
0.0004328368993623525
0.0004345819556174845
0.0004367307128673316
0.0004392340114533793
0.0004419801340847673
0.0004448130893875586
0.0004475733090621498
0.0004503002441964004
0.0009003537763394592
0.0009084452659261211
0.0009129117831063746
0.0009152920120383268
0.0009169727500196335
0.0009179953483435081
0.0009185597756856374
0.001051279442007573
0.001051396766944185
0.00105166250067386
0.001052108234807913
0.001052815603689446
0.001053877549567429
0.001055121957149554
0.0004713519650120453
0.0005717014583468379
0.0005734167071908156
0.000575783807839415
0.0005785540140404026
0.0005816397297268764
0.0005849221324351618
0.0005882677056321732
0.0005915398395828157
0.0005952012198000721
0.001094044727352193
0.001114272668800834
0.001117564018967156
0.001120565850703769
0.001122758203098925
0.0011242057845849
0.001124995683221234
0.001133149178571652
0.001133339034181933
0.00113375061741016
0.00113441610131551
0.001135459080733757
0.001137001965985353
0.001140479033743985
0.00049532169282859
0.0005806999888851648
0.0005824999343648596
0.0005850706109441181
0.0005878145225616111
0.0005905270286306632
0.0005931701466488125
0.0005957891047996023
0.0005984217197018598
0.0006022857425682494
0.001158243019438893
0.001199819027397067
0.001199633107932025
0.001202868947298227
0.001205354740047897
0.001207025895748419
0.001207908222711756
0.001151922065826034
0.001152208062978461
0.001152791329088651
0.001153705649872074
0.001155135331695037
0.001157223651295066
0.001163147133261398
0.0004960057647888109
0.0005731834764839902
0.0005752636175216277
0.0005782534087610158
0.0005810709543317285
0.0005829325948385398
0.0005841269923413587
0.0005852401397727437
0.0005866980227489649
0.0005907492444268675
0.001145174703747967
0.001216919775774729
0.001212332660504262
0.00121559020254391
0.001218485806881432
0.001220451197595362
0.001221516441044532
0.001148633923246255
0.001149012153288211
0.001149756896281977
0.001150948982518957
0.001152785891267515
0.001155441498392109
0.001165201867846074
0.0004935430138117187
0.0005666565334697852
0.0005694326244082212
0.000573455842171559
0.0005774956714600974
0.0005778884005488526
0.0005754741823830458
0.0005739591860820536
0.0005737761696852935
0.0005782438928778172
0.001099539269621647
0.001207525899089345
0.001199310818604146
0.001202642489720423
0.001206314523323258
0.001208772014972388
0.00121017227630098
0.001139686969260383
0.001140118055700895
0.001140966147405151
0.001142382618765496
0.001144555019081141
0.001147716664975415
0.001153458418252655
0.0004917151030690598
0.0005615764487308735
0.0005655143683333026
0.0005715041943021699
0.0005819082906680108
0.0005836638615327381
0.0005664152852602413
0.0005607819122783722
0.0005588226639773327
0.0005642522129555332
0.001037059823057181
0.001187121028016001
0.001177987912947978
0.001181708257647941
0.001186694235779506
0.001189975197425118
0.001191930723209325
0.001129864004004177
0.001130331421812671
0.00113122631704969
0.001132801586328351
0.001135193292121343
0.001138747249183111
0.001139562003703717
0.0004904203106591309
0.0005570687513249344
0.0005621770703260064
0.000570274393778141
0.0005704702014209397
0.0006079340801999491
0.0005541771960749655
0.0005414945869514431
0.0005386024638169698
0.0005464362305306385
0.0009655192532564512
0.001158957423376809
0.00115392909351164
0.001158838005301424
0.001165885542098284
0.00117046156036703
0.001173240791474066
0.001120167859732754
0.001120690922506739
0.001121631296117269
0.001123306573216567
0.00112578938065895
0.001129995379400405
0.001124732002296666
0.0004868760905934876
0.0005523248597215122
0.0005588678279823074
0.0005727109043870947
0.0006066088092019234
1.506075692442405e-06
0.000526662264580943
0.000503610112663814
0.000508063663547069
0.00052258661279011
0.0009070940962445811
0.001128175667949496
0.001130354034569436
0.001137481105148852
0.001146840313736673
0.001152809408501643
0.001156420269335311
0.001110818793783296
0.001111343639212391
0.00111228389942892
0.001113959973162186
0.001116421078093914
0.001121497478143503
0.00110803324291792
0.0004831547200234089
0.0005467429244078372
0.0005522149678594587
0.000560105123905732
0.0005971087455253962
1.023726844918314e-06
0.0004118687840993403
0.0004450037799575661
0.0004670498104729254
0.0004949233525735472
0.0008577238437277623
0.001101476797734994
0.001111048470443526
0.001120278279370151
0.001131563971011093
0.001138691981030376
0.001143002367223406
0.001101789229931277
0.001102279503927613
0.001103160124726187
0.001104711348295429
0.001107053882899473
0.001113013258978889
0.001089116719679679
0.0004792356078756023
0.0005403807647104294
0.0005446113323582675
0.0005535368830930736
0.0005993983809248768
9.688560581663772e-07
0.0003494549676904195
0.0004070762549733454
0.0004359889178731194
0.0004752556373852892
0.0008372537438228888
0.001086238860135138
0.001098675450000113
0.001108842974240696
0.001120880347514992
0.001128396308586709
0.001132835410914267
0.001093024349035187
0.00109346144722306
0.001094244632664236
0.0010955942827555
0.001097783943077675
0.001104482406562673
0.001068690675154247
0.0004752949646551467
0.0005342286570859869
0.0005379107577089001
0.0005461243565442131
0.0006002728549517618
1.083506735560557e-06
0.0005156243754125249
0.0005092184517688131
0.0004752662049155225
0.0004844087125461315
0.0008518180350811453
0.001090114457998659
0.001097859112580054
0.001105547725717881
0.001116334127377652
0.001123052836044342
0.001126951706068748
0.00108451597282864
0.001084889883340884
0.001085559304784188
0.001086688776609548
0.001088764164772401
0.00109598653805202
0.001047731859634379
0.0004714947699221154
0.0005282913044837983
0.0005311864096183839
0.0005383464332560427
0.0005987132732415132
9.381957438335459e-07
0.00057794543667358
0.0005489525870918152
0.0005107940894023082
0.0005030157513525883
0.0008844726556904472
0.001106452439603139
0.001106067197220868
0.001109919576970789
0.001118430246751967
0.001123960600890807
0.001127243713745624
0.00107629015330899
0.001076595327107779
0.001077155958888445
0.001078082306606046
0.001080130092530095
0.001087630615522981
0.001027175525568397
0.0004679425424310986
0.0005226333812947239
0.0005247614142256511
0.0005292055021659611
0.0006037302229429983
0.00547807977454687
0.0006145817335737701
0.0005662276968304689
0.000528245089782706
0.0005131836448247984
0.000915639152198514
0.001124047074085679
0.001116571398531826
0.001117367175152712
0.001123588252232143
0.001127755318997782
0.001130198750374532
0.001068383934459097
0.001068626258634863
0.001069096868121828
0.001069864456149705
0.001071985783942662
0.00107947602824725
0.001007736302180121
0.0004647076851099825
0.0005174655060568685
0.0005192690011937921
0.0005247035438477479
0.05590000717307424
0.00982464417792037
0.0006364840781099769
0.0005766439805285207
0.0005401223794403209
0.0005215014945642504
0.0009439533435994967
0.001138917302625319
0.001126486530245766
0.001125072541094051
0.00112959623547286
0.001132733561322127
0.001134500116135958
0.001060849773254335
0.001061046115557689
0.001061446355720613
0.001062087553281112
0.001064348338240665
0.00107153113814064
0.00098969496637445
0.0004618265843278618
0.0005129221894411344
0.0005146126739466683
0.0005148945780851197
0.08234199113012683
0.0130705363236507
0.0006537193232400939
0.0005837007617239141
0.0005479814371683041
0.0005293043100374937
0.0009678074616459265
0.001150682310724522
0.001134733752896025
0.00113204036287929
0.001135406989439975
0.001137804269567371
0.001139122594800232
0.00105370243252692
0.001053859654568262
0.001054199639306264
0.001054746750921599
0.001057204897377399
0.00106396332187198
0.0009745651372563673
0.0004592341194600586
0.0005088714036251197
0.0005105520589569264
0.0005133683500934526
0.09699693247335907
0.01315770971380392
0.0006549941353246301
0.0005859539352770699
0.0005522050091885287
0.0005354054828730182
0.0009868196672281602
0.001159375146457463
0.001141040850626657
0.001137748637315251
0.001140455952332511
0.001142408380714554
0.001143459707965787
0.001046928146744255
0.001047056505970959
0.001047352012534086
0.001047839528771121
0.00105053473522123
0.001056838040387311
0.0009609982197601073
0.0004568799855116473
0.0005051797578560852
0.0005067082724133296
0.0005175534208106202
0.1075336006227
0.01278576106651849
0.0006492981652004266
0.0005846504757848157
0.0005534241078097881
0.000539795871691533
0.001001428843279517
0.001165321812976656
0.001145472934789269
0.001142043830580147
0.001144452504892873
0.001146175899405763
0.00114708278309145
0.001040525671975487
0.001040632600629978
0.001040900536265823
0.00104135659330885
0.001044309316782714
0.001050152799290158
0.0009484765287393761
0.000454723342215747
0.0005017860880959668
0.0005030717394694188
0.000539853139735253
0.1117495835700357
0.01232912783165663
0.0006430950917620153
0.0005815170382958282
0.0005526768203708557
0.0005423581522206265
0.001012258495393974
0.001168978478602269
0.001148246762011533
0.001144968275388197
0.00114731535798852
0.001148958537468792
0.001149806284974818
0.001034492324903987
0.001034581822497352
0.001034835555802324
0.001035281464349774
0.001038499302700946
0.00104389260394601
0.0009369501982023768
0.0004527430023147889
0.0004986789411614542
0.0004995673800264795
0.0005846096255698248
0.1148907851535259
0.01191101546719786
0.0006379331559376242
0.0005781874060396939
0.0005509891458917123
0.0005430431224520526
0.001020011068090501
0.001170844853853435
0.001149645124375788
0.001146668741739424
0.001149094702548828
0.001150758160884321
0.00115161155987971
0.001028818128161273
0.001028894020717592
0.001029142987697357
0.001029595040641956
0.001033076690700089
0.001038038386587775
0.0009263925122821155
0.0004509135235358926
0.0004958353224538386
0.000496345138680014
0.0006557163752430105
0.117408522413647
0.01163189369842035
0.0006334269851043531
0.0005751832605110531
0.0005489606963393656
0.0005442639031005076
0.001025383884039482
0.00117137476397954
0.001149955708789042
0.00114734272093589
0.001149918101669023
0.001151657404787503
0.001152560742640122
0.001023487680310423
0.001023554725967058
0.001023805400720257
0.001024275655731348
0.001028012476546423
0.001032567252688807
0.0009167610917007894
0.0004492092455538667
0.0004932157391233839
0.0004934050828652149
0.0007545634703453328
0.1195887375913884
0.01146315221431356
0.0006291655666290626
0.0005721456883361728
0.0005467662679968296
0.0005455268892599706
0.001028962335459894
0.00117093445284346
0.001149433258406312
0.001147192864033592
0.001149944111429947
0.001151780075224415
0.001152755238560409
0.001018482781253626
0.00101854673545812
0.001018803724769896
0.00101930057373027
0.001023278811513974
0.001027456036643245
0.0009080024884624697
0.000447625968511018
0.0004907994355136458
0.0004908499377579645
0.0009335533296005739
0.1216234828252266
0.01138364285234655
0.000625262238631029
0.0005692753836965891
0.0005445389989251578
0.000546647539780586
0.001031221254478014
0.001169795765173425
0.001148286431426767
0.001146400519334791
0.001149328625010859
0.001151261298361353
0.001152312937832079
0.001013783250203508
0.001013853165376284
0.001014117090876672
0.001014647769577595
0.001018852850607066
0.001022687024752292
0.0009000420815895052
0.0004461550924937551
0.0004885719557365659
0.0004885336379535809
0.001323259365106652
0.1236257806606673
0.01138203795091791
0.0006218017020926099
0.0005666603237388447
0.0005424090526392937
0.0005476021589792402
0.001032516286369605
0.001168156857848669
0.001146682096647721
0.001145117851951575
0.001148209765306595
0.001150229262909716
0.001151352331287606
0.001009371481278093
0.001009449380041965
0.001009724459377786
0.00101029544467858
0.001014712330240851
0.001018238952860457
0.0008928223130441742
0.0004447859721680311
0.0004865092074710434
0.0004864495408129137
0.001853604708588578
0.1259008576206917
0.01145430117970203
0.0006186985792289793
0.0005642267997109326
0.0005403924034327496
0.000548320145380058
0.001033083967099696
0.001166162096993662
0.001144751945173301
0.001143468285374016
0.00114670416021595
0.001148796967544842
0.001149982791772167
0.001005226742231232
0.001005312845200142
0.001005603867833514
0.001006218225337142
0.001010830336560137
0.001014082462631951
0.0008862654676990023
0.0004434986695201463
0.0004845785326908452
0.0004845380734984106
0.002465234101663666
0.1283205527413301
0.01159815522839417
0.0006158730575297397
0.0005619233230255233
0.0005384506449635706
0.0005491716309505951
0.001033065553216223
0.001163919673465124
0.001142594063855222
0.001141549102426415
0.001144907541811991
0.001147059327733865
0.001148299666016941
0.001001330580154172
0.001001422805189381
0.001001732508806029
0.001002390802580312
0.00100718010110812
0.001010183881969242
0.0008803231595549145
0.0004422962561598725
0.0004827500475713363
0.0004827748681702694
0.003121476954425453
0.1309128680728274
0.01180948402486656
0.0006133218491548923
0.0005597325620083915
0.0005365642038134838
0.0005498303188628144
0.001032582493929681
0.001161523599281574
0.001140280588804848
0.001139435853583121
0.001142896323356207
0.001145094006107417
0.001146381851244482
0.0009976632559918262
0.0009977596655080456
0.0009980893248139489
0.000998791151364257
0.001003741139738521
0.001006525342212093
0.0008749011094136207
0.0004411639863999204
0.0004810455890631789
0.0004811630112124362
0.00380124962974026
0.1334617007446314
0.01208303041238922
0.0006110754575405905
0.0005576743734488314
0.0005347396346604794
0.000550206947733059
0.001031779754407986
0.001159050892272029
0.001137867984528286
0.001137186006569713
0.001140729511230643
0.001142963339114971
0.001144291749550456
0.0009942036480475864
0.0009943028700224582
0.0009946527428500208
0.0009953964532481633
0.001000493476399644
0.001003084453167595
0.0008699314135482287
0.0004400886017905441
0.0004794910663994217
0.0004797000157445401
0.004491956805619316
0.1361640809241695
0.01241238506823838
0.0006090938848511203
0.0005557030600630255
0.0005329305187256881
0.0005503023764285839
0.001030732138927308
0.001156523094777136
0.001135390999354647
0.001134842599216265
0.001138452313402624
0.00114072211878808
0.001142074284356548
0.0009909318879516773
0.0009910323441151374
0.0009914013576377979
0.0009921833779530593
0.0009974134876585151
0.0009998304115472934
0.000865345427219436
0.0004390516076043004
0.0004780111252723655
0.0004783127868631535
0.005185665810455111
0.1390611377696163
0.01279276047040459
0.0006073150778472711
0.0005538130252357866
0.0005311937380236886
0.0005502440042769568
0.001029523127639892
0.001153950957378692
0.001132878128125615
0.00113243972164308
0.001136100640921514
0.001138408559052031
0.001139767664337517
0.0009878287712381539
0.0009879295204197054
0.0009883165399717586
0.0009891334365270306
0.0009944823333453384
0.0009967354593355343
0.0008610779366457048
0.0004380598946005022
0.0004765604362366776
0.0004769646255064345
0.005873907350791278
0.1421526695132634
0.01322388810265947
0.0006057036920133862
0.0005520184301080246
0.0005295312101698058
0.0005500631132741883
0.001028197806035111
0.001151360079071776
0.001130354749421789
0.001130007903103044
0.001133707575132263
0.001136049857259366
0.0011374051353807
0.000984879746240893
0.0009849816921012338
0.0009853862485816386
0.0009862362329856697
0.000991693268852451
0.0009938145075818932
0.0008571077460410423
0.0004371281600353388
0.0004752170185882269
0.0004757181155033873
0.006548702652875306
0.1453699983907129
0.01370766441257813
0.0006042203117367484
0.0005502489314340425
0.0005278558285961048
0.0005497270300882004
0.001026754657580085
0.00114879273894982
0.001127835809325453
0.001127569222329763
0.001131296063126983
0.001133667490697633
0.001135014780909375
0.0009820577452748825
0.0009821637491179015
0.0009825842500188332
0.0009834663201715957
0.0009890224766228219
0.0009909664065128109
0.000853451603074501
0.0004362324776645085
0.0004739760891006147
0.0004745664934374347
0.007207854610549137
0.1489873471371908
0.01424997838130507
0.0006028440060787644
0.0005485082304815454
0.0005262294799492298
0.000549326611707822
0.001025247948427844
0.001146260825829033
0.001125335015447537
0.001125144830901119
0.001128891868375243
0.001131287049213817
0.001132627268538287
0.0009793905099276337
0.0009795058264826077
0.0009799316317035006
0.0009808432937230493
0.0009864801410796767
0.0009877771188336875
0.0008498438671870147
0.000435336021971423
0.0004727167232339536
0.0004734114070278727
0.007852227208122009
0.1528946117124393
0.01485028198407724
0.0006016152303560769
0.0005469190426750743
0.0005247998791503293
0.0005489601055246568
0.001023662204315334
0.001143755751698704
0.001122869213651363
0.001122736238378596
0.001126503667481204
0.001128904215566551
0.001130246404059377
0.0009767357107004629
0.0009768968061075428
0.0009772968822433716
0.0009782512954989732
0.0009839764231733108
0.0009853786700902579
0.0008468363943701911
0.0004344728902999758
0.0004714560159197637
0.0004722445002178328
0.008482850400035989
0.1570095206495799
0.01550623872397632
0.0006005121101346402
0.0005454050819279889
0.0005234402750132583
0.0005485550811874769
0.001022299831662893
0.001141139812167361
0.001120387652844847
0.001120285052277364
0.001124115263442207
0.001126465758815094
0.001127867603268088
0.0009746626258719719
0.0009747834484353555
0.0009752142374060491
0.0009761963173469118
0.0009819431971507533
0.0009807251109135893
0.0008425194955987879
0.0004336351586963878
0.000470357257428717
0.0004714320394242529
0.009106446282666001
0.1613627221290502
0.01621689724512571
0.0005994479244859924
0.0005438390422686641
0.0005219832540645428
0.0005480128247049857
0.001020150752618925
0.001138955400890268
0.001118163532157081
0.001118086872991669
0.001121912965243411
0.001124321068018105
0.001125624517292978
0.0009724000114036246
0.0009723442437226457
0.0009728391278756285
0.0009737440220216266
0.0009794015986701371
0.0009806993020325715
0.0008420661973289437
0.0004323723179680972
0.0004693768796010922
0.0004700264605680537
0.009726606725080524
0.166590349662553
0.0169531187770323
0.0005978676467818393
0.0005424327273193531
0.0005206476987441122
0.0005469299958153694
0.001019142875557472
0.001134204612924277
0.001113146029135593
0.001112901737484437
0.001116552860862431
0.001119022964439454
0.00112012155705241
0.0004162667879708675
0.0005274937923855242
0.0004297732258016305
0.0005300534642782721
0.0005306575588359343
0.0004320016674994366
0.0005316521167982773
0.0005326062938326382
0.0004335588469803713
0.0005338125618585401
0.0005350037302582502
0.0004355157035719946
0.0005364187032416035
0.0005378217111065305
0.0004378617201710331
0.0005394008674511053
0.000540957773990314
0.0004405145536405937
0.0005426331396349153
0.0005442635801086813
0.0004433366254489465
0.0005459504786233169
0.0005475658812310046
0.0004461650096032736
0.000549175629797707
0.0005506958905160491
0.0004488511960917914
0.0005525310964848732
0.0004404458586702829
0.0002532690188728903
0.0004902214727650991
0.0005771823991236162
0.0005682464764336521
0.0005816686696180993
0.0005822349124929288
0.0005722913809588164
0.0005834162797007253
0.0005845111755635891
0.0005744495193312911
0.0005858854870917929
0.0005871706532827652
0.0005770394121985153
0.0005886648586734462
0.0005900903537820009
0.0005800007565651498
0.0005916293565542229
0.0005931251267931547
0.000583216274182649
0.0005946857602248562
0.0005962078356495147
0.0005865587576681421
0.0005977650008783683
0.0005992777143024764
0.000589893563395248
0.000600782475719173
0.000602230633582098
0.0005930899503512796
0.0006045550696112936
0.0005101205144495603
0.0004937540678750549
0.000492019177035326
0.0005700599786229448
0.0005750334541181696
0.0005770329857395004
0.0005776143288053747
0.0005812222982678957
0.0005789263379584789
0.0005801756757547961
0.0005836181412406446
0.0005816541690072969
0.0005829821348550481
0.0005863245842622162
0.0005843832852558648
0.0005856677492943486
0.0005891337116717191
0.0005867437993689702
0.0005878263401367011
0.0005918243801234164
0.0005887974603535164
0.0005897739481426293
0.0005944468218212289
0.0005907751052129623
0.0005918018486000086
0.0005970794126422729
0.0005928638345612337
0.000593947728568305
0.0005997096530701921
0.0005968099136004331
0.0005049397325058853
0.0005114571603505204
0.0004876213393013885
0.0005598570525853642
0.0005647428328255748
0.0005696692716880954
0.0005705096565366287
0.0005737992488918006
0.000572024734850616
0.000573689611006759
0.0005766089602633482
0.0005754305416801794
0.000577077610412533
0.0005796170376501499
0.0005784929051656826
0.0005798650333359068
0.0005822448302125896
0.0005797545040629351
0.0005798476336197719
0.0005836198539471211
0.0005796941694627538
0.0005795957645195622
0.0005846323950043845
0.0005796492131945662
0.0005798910375700176
0.0005858980017489102
0.0005803140064666543
0.0005808862401197629
0.0005875405293342154
0.000584560992535595
0.000490524245086104
0.0005034359660376943
0.00048853057981003
0.0005514385370991202
0.0005553887300988031
0.000563978911255188
0.0005653101314373556
0.0005676682052117315
0.0005672824742001901
0.0005696486473580877
0.0005713471160543634
0.00057213020162502
0.000574854106823903
0.0005753905814839837
0.0005762502671075019
0.0005791970873392886
0.0005785966946350009
0.0005766538787439692
0.0005728848826740097
0.0005764377509585945
0.0005711897386577273
0.0005691637491208184
0.000574538673106816
0.0005677747875591064
0.0005669893954770978
0.0005736906652006598
0.0005666829872541814
0.0005667246335277798
0.0005740709937661034
0.0005716015185402069
0.0004806160640089236
0.0004927884648043383
0.0004892656714086726
0.0005447770865207413
0.0005479046829354774
0.0005592907917908431
0.0005612477414587695
0.0005632087986424804
0.0005638828334495908
0.0005672311523654139
0.0005683506735457453
0.0005708960972912922
0.0005763198069812277
0.0005748909210332488
0.0005481787077996862
0.0005643986478048788
0.0005700272513681316
0.0005607587169958165
0.000558149726337437
0.0005694867996766626
0.0005588522614462547
0.0005550224096739231
0.0005630981925236856
0.0005520682835704928
0.000550374811966555
0.0005594213878436987
0.0005496386543785408
0.0005495158813390774
0.0005586838978129901
0.0005562122391370238
0.0004707767152337624
0.0004813910205999786
0.0004874100216419367
0.0005394539166565331
0.0005419738727449122
0.0005546866982749233
0.0005570304454028344
0.0005592733153521254
0.0005601328709231254
0.0005643795415109388
0.0005657785624412266
0.0005701146156011157
0.0005754339627350772
0.0005658894022062132
0.0006117415718965372
1.932683891751861e-06
0.0006144810217207899
1.83488537186803e-06
0.0005790485830001589
0.0005759584935053299
0.0005412774631333618
0.0005307571758146319
0.0005455733765221707
0.0005269835082437824
0.0005252144364310289
0.0005392061231724743
0.0005251871469438839
0.0005261543801898109
0.0005387917932625068
0.0005357447226942581
0.0004583604516609034
0.0004682018806006602
0.0004842470457904798
0.0005345352497096695
0.0005369881916194493
0.0005496748165544174
0.0005522121127655408
0.0005549857322473757
0.0005556814101390627
0.0005599722026592946
0.0005643937437572641
0.0005639003194668405
0.00057343895526877
0.0005786968619979723
0.0005981157488042433
1.375032802712578e-06
1.662951588130289e-06
1.043769009185114e-06
0.0005292842793846471
0.0005506455813594808
0.0004682653054130355
0.0004702692292714872
0.0005079289937574541
0.0004744015671164788
0.0004811901027450702
0.0005052594882233583
0.0004881514085940033
0.000494268256971887
0.0005110594311074332
0.0005090103626306543
0.0004421521035862333
0.0004524230992805508
0.0004806898098272773
0.0005293448541653353
0.0005319530718112963
0.000543607064018114
0.0005455089409546654
0.000549036619521601
0.0005478652430730748
0.0005502743197929332
0.0005562068479424378
0.0005531146859577234
0.0005605319778925453
0.0005671968138510306
0.0005985265799656132
1.161178182463557e-06
1.208865950695821e-06
9.201064863439367e-07
0.0004763909022854878
0.0005097037198623975
0.000369304628786439
0.0004038489659529009
0.0004325417954192892
0.000420304966837123
0.0004355949906829007
0.0004553663583257042
0.0004493133477417681
0.0004620719360943456
0.0004769869179788428
0.000482866739664858
0.0004265321893847519
0.0004350609239489825
0.0004768790625138358
0.0005240805908048047
0.0005266703397332123
0.0005372912600625435
0.0005388163259789422
0.0005420637357748966
0.0005410101103764261
0.0005432762537851575
0.0005479311790904586
0.0005470500682728243
0.0005571741468157447
0.0005634360875445221
0.0006000458764957865
1.199320915096652e-06
1.156133404178375e-06
9.606553998573937e-07
0.0004225042666525343
0.0004260756272283575
0.0003164771438210829
0.0003512547571520433
0.0003807247374060059
0.0003814296617036294
0.0004047221904168523
0.0004128410509814888
0.0004295463817221872
0.0004480869190503092
0.0004523177361550271
0.0004726537361613679
0.0004216364226380758
0.0004222297865041333
0.0004730881315288296
0.0005190909439057318
0.0005215599494557322
0.0005312423241730093
0.0005324414318615949
0.0005355948303091706
0.0005344772779985285
0.0005367886068448886
0.0005407306404785487
0.0005404124904740005
0.0005520585610752983
0.0005572564941670441
0.0005996750609987926
1.206470943339732e-06
1.222148661727857e-06
1.031484820659559e-06
0.0007825963855436109
0.0007909892923478871
0.0005623797936243569
0.0005840170969155466
0.0005526983999531918
0.0005376153703698283
0.0005104387907593499
0.0004837482259842348
0.0004974052740392961
0.0004940994612197396
0.0004750766014644736
0.0004951708392492411
0.0004512067634987072
0.0004361125551315207
0.0004694246599876331
0.0005143958188559391
0.0005167214174777087
0.0005254243520966651
0.0005262775934650401
0.0005293201276882848
0.0005280008197972963
0.0005301081441731472
0.0005337163259090632
0.0005337692887067439
0.0005416564316328152
0.0005544423600716777
0.0005984556739879096
1.310775254570804e-06
1.169271715360767e-06
0.007729349818336415
0.0007360800815213106
0.0007731923736575267
0.0006064291643776519
0.0006003702571377563
0.0005918808012961383
0.000559213208131842
0.0005336950670969652
0.0005242086917416877
0.0005204060517861031
0.0005160378484603042
0.0005067313838750826
0.0005085132167809383
0.0004847701144356162
0.0004693591018871528
0.0004660642884066964
0.0005100613120985867
0.0005121975142607698
0.0005199703049037605
0.0005205210879286117
0.00052332258262062
0.0005218720758770056
0.0005238259895559677
0.0005264463990956628
0.0005264617494011671
0.0005156771431637306
0.000537999169442608
0.0006059424497226782
1.313388699285419e-06
1.297996795082401e-06
0.004065905432394988
0.0007363380230329048
0.0007685807501454743
0.0006218121846998157
0.00061509844851663
0.0006093619293803565
0.0005717666954254116
0.0005471586064160769
0.0005410982954109716
0.0005347096480580597
0.0005288818218798829
0.0005231551973497228
0.0005174406855372987
0.0005169514663649135
0.0005016489397442926
0.0004630421818037366
0.0005061459968555793
0.0005080537349134033
0.0005151325829005958
0.0005155379054629383
0.0005179411260852864
0.0005168664216859752
0.0005178925108203253
0.0005209703749832116
0.000517119898478825
0.0008516862651625041
0.000636183258296399
0.0715108519717584
0.2163343920541414
0.2387807804949018
0.01224505136147934
0.0007501392419809222
0.0007438409405828134
0.0006475610077306558
0.0006256192548383191
0.0006210440098993953
0.0005808020618369786
0.000556679965349439
0.0005523101796278032
0.0005445112730508014
0.0005367132471277906
0.0005332629317473219
0.000525609210224451
0.0005470371988698473
0.0005326679207762653
0.0004603430617309676
0.0005026396737217145
0.0005043499889104426
0.0005108492749410895
0.000511197713175297
0.0005132948035062078
0.0005125375054729243
0.0005129805823797709
0.0005152071033415994
0.0005138298166725244
0.003004386278441058
0.001150277534506106
0.090487103721625
0.1588635594559815
0.1863418813099975
0.01324609562983245
0.0007493077729499676
0.000750871802374188
0.0006558840380698262
0.0006292991884467486
0.0006284780119462658
0.0005853734465667641
0.0005626677531522533
0.0005601643115668319
0.0005505169807043784
0.0005409081072242373
0.0005391882359902763
0.0005325813946215971
0.0005764412387660033
0.000562124550119337
0.0004578950737193458
0.0004994661971220345
0.0005010148251062051
0.0005069919197065397
0.0005073273123280667
0.0005092164690888201
0.0005085959032362186
0.0005091190041608741
0.0005109019604465665
0.000513839578180673
0.009565669541436924
0.006031026844536676
0.1025631906990613
0.1224027094778056
0.1378683757452105
0.01295198894964362
0.0007429668510553687
0.0007463679722120136
0.0006525408094157114
0.0006263327276161177
0.0006283432957120003
0.000585584250629773
0.0005649853371458942
0.0005642718401018562
0.0005531078404771488
0.0005423148604389157
0.0005419055992359561
0.0005378062019658785
0.0006035059836015809
0.0005904688156423164
0.0004556590854964183
0.0004965362630876851
0.000497966434360609
0.0005034518742453466
0.0005037453892823186
0.0005054920845175139
0.0005048756223340977
0.0005061938850205262
0.0005075308968803692
0.0005262824000060682
0.01852715395517383
0.01393597554241543