/*--------------------------------*- C++ -*----------------------------------*\
| =========                 |                                                 |
| \\      /  F ield         | OpenFOAM: The Open Source CFD Toolbox           |
|  \\    /   O peration     | Version:  v1912                                 |
|   \\  /    A nd           | Website:  www.openfoam.com                      |
|    \\/     M anipulation  |                                                 |
\*---------------------------------------------------------------------------*/
FoamFile
{
    version     2.0;
    format      ascii;
    class       volScalarField;
    location    "12600";
    object      k;
}
// * * * * * * * * * * * * * * * * * * * * * * * * * * * * * * * * * * * * * //

dimensions      [0 2 -2 0 0 0 0];


internalField   nonuniform List<scalar> 
7769
(
5.125442140147445
5.126898495809362
5.13076943109693
5.136983437625156
5.14713284949317
5.162703625592393
5.183864313221233
4.66508025675042
5.256700185628075
5.313051818313816
5.385979527630521
5.476831992826366
5.584775363502239
5.706416912834919
5.836185547295555
5.967451735566649
6.094448818399473
6.227688647737421
6.337061092176818
6.422195106924949
6.48955847039501
6.540174077951488
6.573373791278775
6.592131613992239
3.70259779394137
3.703624459147106
3.70642804878318
3.710925538473108
3.718269255261907
3.729535605567605
3.745591819833746
2.351847801755701
2.987034604650347
3.018206325254886
3.059708747964323
3.111341840805601
3.172605475472525
3.241588733681623
3.315168173191304
3.389626696312581
3.464431935694794
4.471100876231837
4.580205752304344
4.638855810094719
4.687666785311798
4.724298788565889
4.748288671339898
4.761808430389669
2.910758411658209
2.911557095772021
2.913782709757184
2.917329526564354
2.923129981962829
2.932030005546142
2.946964170769049
1.694954624521269
2.133260626826625
2.154354112448371
2.184008592536926
2.220827465858466
2.264334834362387
2.313235065825763
2.365409161758889
2.418317430042577
2.475606929288329
3.474228064329664
3.605392754415516
3.645070339561352
3.683387061095302
3.712308718363425
3.731194520882404
3.741821868205641
2.418117332066823
2.41877552423799
2.420632653725637
2.423586183314467
2.428413790958365
2.435818133521004
2.450458145592265
1.357069379330512
1.669544668668867
1.685096568317659
1.708408447009454
1.737392395956735
1.771072055794529
1.808701116113123
1.849003018585
1.890173283885317
1.939374549026639
2.834873895426324
3.00047046331299
3.026061933586984
3.057579742465847
3.081922003584395
3.097762726099037
3.106698877085616
2.077189072761251
2.077723065336563
2.079284111121853
2.081788632882733
2.085877335659685
2.092154361143902
2.109349597070727
1.129679164151485
1.369763149204666
1.381938360051006
1.401348977307724
1.426785970696549
1.453869778472147
1.482297035827191
1.514620670382322
1.548259527734979
1.593325439612456
2.377565816761229
2.581854955037097
2.597596678176135
2.624051193924373
2.645472826851342
2.659347824913378
2.667214004323528
1.823107668156437
1.823504246649444
1.824789764382569
1.826892455699584
1.83033408951889
1.8356571508004
1.842431063148787
0.9671145188862764
1.158506016181454
1.16850993111639
1.185399990869566
1.220147699254993
1.245175580417711
1.251335334582368
1.277958965337826
1.306477175915514
1.349441898253465
2.020718780249942
2.26785793950969
2.278698135652154
2.301007328115845
2.320566037470886
2.33318603543251
2.340377991906844
1.62447969565691
1.624770415095848
1.625817266801136
1.627552715601941
1.630401189474564
1.63487265968815
1.632567001503752
0.8457782984877218
1.00119454065628
1.009331010352903
1.024605052648511
1.064817059737107
1.100143875744121
1.088542315407137
1.099841390517978
1.124747249747729
1.166787358159644
1.730957734787859
2.018336599760128
2.030507974014021
2.049454294929711
2.067724935542693
2.079468428082716
2.086160782567281
1.464210984742806
1.464416312885876
1.465267813874392
1.466675052042583
1.468996166288717
1.473087536856607
1.463235051609965
0.7484025631795898
0.8794325095223825
0.8863089886316073
0.900064510187257
0.9524213791697411
6.60000000000001
0.965741467892397
0.9566259198152726
0.9812552004560473
1.023787085187325
1.520574629839393
1.818058743202459
1.83262661049375
1.848678219684249
1.865676074745204
1.876591624983513
1.882810069016464
1.331978230517931
1.332099586561999
1.332779307533982
1.333883573457145
1.335758800826036
1.339833879328063
1.322479040650312
0.6708562268737212
0.7824312209576164
0.7870817834586815
0.7951679801710789
0.8705791110234722
6.600000000000008
0.8186859260448025
0.8525609299971791
0.8682121751725255
0.9112579974361706
1.355686382627123
1.65683295926368
1.672576450175045
1.685795113320294
1.701180715210408
1.711079157164772
1.716696980422495
1.220998555314922
1.221045380007526
1.221573270028576
1.222402156793609
1.223926960712267
1.228150991295125
1.202861873896231
0.6078017765184178
0.7036528170723275
0.7067868423270508
0.7145147880827747
0.7950480868940967
6.6
0.7316026018890072
0.7783135410629582
0.7863389301924961
0.8287752665627154
1.244881664089019
1.529928812387325
1.542279751602729
1.552295276021481
1.565392746372505
1.573831475962771
1.578555936671795
1.126567738731072
1.126555316698282
1.12695690564414
1.127557028301265
1.128844591319628
1.133220484916587
1.099918051870902
0.5556258952066822
0.638944533246585
0.6413263700148821
0.6485337641378969
0.7399011919042197
6.599999999999982
0.9607459143862839
0.8925047411833804
0.7883703088220712
0.780093457735122
1.173917689279362
1.430946406923325
1.436312208940926
1.442248591448218
1.452489578028993
1.459200595784583
1.462921217723101
1.045300604788562
1.045244920092411
1.045548613856771
1.045977168315686
1.047144667504418
1.051571271638449
1.010736230130312
0.5118073518868969
0.5849746961948088
0.5867492743395403
0.5936312394744079
0.6914744374255168
6.600000000000001
0.9776958499717748
0.8698984685604847
0.7623381919507245
0.7354416933665642
1.121851995005969
1.349427638193546
1.347403399388494
1.349670322796594
1.357147411886527
1.362219411627096
1.365015847284564
0.9746867241274481
0.9745996430238533
0.9748354426836037
0.9751482034745597
0.9763032409755651
0.9806338484676776
0.9332225578041747
0.4745427913003437
0.5393560303025922
0.5407143029098015
0.5465484782097674
0.6741935962642671
22.71636679708553
0.9279779790455293
0.810526460791978
0.7198262673764191
0.6877154908894375
1.075158396250225
1.276813527874056
1.269269224685145
1.269051723078936
1.274366211902087
1.278106559468409
1.280114603769443
0.9128174780252509
0.9127124725758355
0.9129070476937787
0.9131539148754684
0.9143746220157544
0.918442730031399
0.8657020163377291
0.4424730445177396
0.5004043249570291
0.501651107180208
0.5075425385257599
82.82649634609575
21.14999779989931
0.8718451281110741
0.7513678741630677
0.6764220963832269
0.643918209258402
1.030838790040294
1.209477357767328
1.19854163371745
1.196950387442281
1.20083911099283
1.203657553349921
1.205112194443896
0.8582135348961701
0.8581013394756057
0.8582721873811548
0.8584848179048958
0.859817167525457
0.8634603462415262
0.8065965436373647
0.4145787287875277
0.4668107954303135
0.4680863898188516
0.4694047922620651
144.5709304748263
25.27419938535338
0.8142818661719652
0.6968421397106465
0.6345458172528922
0.6051370709240943
0.9872564879224119
1.146451350399806
1.133608319173619
1.131472539667646
1.134526352198683
1.136775044080301
1.137905780720163
0.8096938438132431
0.8095799210817597
0.8097381645429749
0.8099400612833146
0.8114058901501644
0.8146056388691735
0.7557074013354456
0.390061479206557
0.4375136996865397
0.4387924028431686
0.4425061492900104
173.5415323357139
23.25061832836526
0.7527052531849641
0.6468113445821483
0.5947141334010547
0.5695700258798432
0.9443471301546116
1.087408863508343
1.073666402168017
1.071490067956456
1.074119710405151
1.076052709471557
1.077019828216945
0.7663135802024565
0.766202012541885
0.7663560664408542
0.7665638229217229
0.7681677026436388
0.7709629403867789
0.7108163985713689
0.3683265745103001
0.4117100132017378
0.4129031932214154
0.4235001138295433
183.011941961474
20.71353636461053
0.6952979299476001
0.6016114953491343
0.5573969591993231
0.5369002442705441
0.9025938830370034
1.032236287044089
1.018242396278304
1.01629370962938
1.018747533283375
1.020519483486292
1.021413639252987
0.7273130887588765
0.7272047444732758
0.7273611732102347
0.7275845097816309
0.7293198294887205
0.7317563279027262
0.6707071955784683
0.348914159611683
0.3888030017949572
0.3898176973856939
0.4192225921679739
179.1952856008631
18.51735270670775
0.6446716655290061
0.5611631824192435
0.5230664201966779
0.5066323784447951
0.8623911313766882
0.9808560734299828
0.9669947350195843
0.9653868469710944
0.9677965912946511
0.9694949094557052
0.9703664223913626
0.6920705334314943
0.6919648320456524
0.6921275753575269
0.6923711825909864
0.6942253808757368
0.6963459740704281
0.6346992438867575
0.3314618057003199
0.3683294430109527
0.3690292115214867
0.4330071522277932
172.8709060802599
16.73998441960364
0.6008374714444614
0.5253239395332895
0.4919599432682416
0.478326743355393
0.8240514772705717
0.9331555036946227
0.9196316191310822
0.9183823383615627
0.9208048724086177
0.9224755099841212
0.923352081770598
0.6600741649348141
0.6599703365717534
0.6601412626886979
0.6604068727816642
0.6623647659271916
0.6642085036270196
0.6022525437962438
0.3156810086442041
0.3499231655712113
0.3503321600686547
0.4649711655638882
165.6606077832435
15.36844563120133
0.5625924566002146
0.4937817822915823
0.4639445748501589
0.4536240896850139
0.7877858952872544
0.8889735894917439
0.8758768261273712
0.8749555349509475
0.8774052146231834
0.8790659747925014
0.8799590329785738
0.6308979872059018
0.6307955443414112
0.6309750194310373
0.6312625363625236
0.6333077672340789
0.6349100706405663
0.572909820957522
0.3013340120280837
0.333285858228628
0.3334739404655216
0.5142994431818685
158.4954487988762
14.31097940412113
0.5289642709341921
0.4657007275580947
0.4386608917197491
0.4315313640052089
0.7536819820383129
0.8481021438453682
0.8354532724000131
0.8348122660352419
0.8372830853129528
0.8389347985100102
0.8398438421224184
0.6041871634758688
0.6040854369442303
0.6042736480325852
0.604581402557531
0.6066971306968357
0.6080892088153066
0.5462783725165136
0.2882321624864347
0.3181686710609578
0.3182384040948438
0.6133122913545834
151.8185251187801
13.49039409679927
0.4992056674565029
0.440522930314251
0.4157977249470441
0.411504334138951
0.7217450873481154
0.8102996859716689
0.7980893044590607
0.7976797750347893
0.8001575233941844
0.801793314873262
0.8027111791802333
0.5796416564267604
0.5795437413896575
0.579737982362262
0.5800641776476515
0.5822347112012087
0.5834445330972575
0.5220174001182223
0.2762174469927747
0.3043607495193984
0.3043698831868925
0.8400635406865812
145.8048935467053
12.86070247622604
0.4727507237340031
0.4178991734821754
0.395130230281946
0.3932480251041027
0.691918583819477
0.7753098741127793
0.7635242860251185
0.7633016703922159
0.7657697869206618
0.767380878741572
0.7682982338893688
0.5570080618547365
0.5569158380633332
0.5571134781907898
0.5574567977886793
0.5596681921005584
0.560721879589643
0.4998422304227917
0.2651602634989115
0.2916969899158029
0.2916849509294752
1.139105935295201
140.5389250433065
12.39429325801106
0.4490988984203197
0.3974976640595246
0.3763833059523645
0.3764842439139825
0.6640860998193154
0.742882449615094
0.7315119116433907
0.7314356732926107
0.733878535390643
0.7354570806198645
0.7363651908036775
0.536070798412832
0.5359835769564789
0.5361838066219083
0.5365417621022115
0.5387813650293616
0.5397012895758568
0.4795019776532666
0.2549470023209641
0.280039142816128
0.280031039202756
1.468373413314496
136.0621480673834
12.0685486960889
0.4277985814255757
0.378959178553029
0.3592411762376175
0.3612274376955798
0.6380897973859945
0.7127900761353058
0.7018224196760459
0.7018566648400948
0.7042615860761262
0.705801589739444
0.706693605091232
0.5166461506497526
0.5165623633833034
0.5167641335148437
0.5171337637037516
0.5193899111557899
0.5201943891064611
0.4607790840766276
0.2454818125487652
0.2692560039845167
0.2692673414970797
1.803964216226357
132.3529113346167
11.86063648368932
0.408484136490651
0.3619950985744609
0.3434597485887559
0.3470482094088686
0.613790386750138
0.6848333195982397
0.6742449780269455
0.6743590281543546
0.6767163704765806
0.6782144428411345
0.6790849224973167
0.4985755014982098
0.4984938442196711
0.4986962190040168
0.4990751655370512
0.5013382962238565
0.5020432683981678
0.443493023212453
0.2366862345721321
0.2592652644720492
0.2593029059935455
2.133479686152774
129.1227975369831
11.75116553037142
0.3908890088327455
0.346417953177549
0.3289044039694134
0.3337796397431092
0.5910614282268187
0.658825321951092
0.6485851861268616
0.6487552191886959
0.6510581488961616
0.6525127679746003
0.653357744925171
0.4817197596311131
0.4816393001028402
0.4818415944120657
0.4822280043401009
0.4844911094331382
0.4851112033312167
0.4274864714457625
0.2284950276297599
0.2500188405112594
0.2500806927640755
2.450623629814504
126.5025647644796
11.72327249333219
0.3747871816850059
0.3320485953999941
0.3154407645633945
0.3213565709255408
0.5697855013402855
0.6345845332315757
0.6246635653040058
0.6248737935955836
0.627117095686334
0.6285308468133796
0.6293441023214984
0.4659589453084746
0.4658786787089931
0.4660798667437407
0.4664711798468051
0.4687276420086309
0.4692746288868154
0.4126125832902398
0.2208388452175774
0.2414118451292377
0.2415036149120941
2.752366575199454
124.4602166780286
11.76479738798116
0.3599868950323669
0.3187626406179153
0.3029970726901753
0.3097586060913649
0.5498605585212946
0.6119408588663632
0.60232292859584
0.6025619369424267
0.6047423386057604
0.6061173669986856
0.6068933803182721
0.4511860688867614
0.4511049727113395
0.4513040116943391
0.4516975996002038
0.4539407743933454
0.4544213173962879
0.3987378904292874
0.2136578942585058
0.2333265941916576
0.2334629722482699
3.035487089124337
122.9201353262292
11.87153474223111
0.3463531012462431
0.3064894001393486
0.2915079220390253
0.2989429975619289
0.5311810290317177
0.5907485120007403
0.5814232544128758
0.5816802265774349
0.5837968799136174
0.5851335523257911
0.5858700514082498
0.4373177733539709
0.4372354907716351
0.4374318873243515
0.4378265469824044
0.4400522784959153
0.4404822532712145
0.3857698421191301
0.2069196683982026
0.2257506692087851
0.2259273879623286
3.297209136718101
121.7672419944034
12.04194829484891
0.333766555230685
0.2951003515470683
0.2808027002081276
0.2887705087480002
0.5136304885211097
0.5708976884283434
0.5618413826564814
0.5621077551162074
0.5641620918410123
0.5654601481840529
0.5661581350913719
0.4242401819664915
0.4241572553571764
0.424350829752464
0.4247460807937263
0.4269525195978101
0.4273122449779871
0.3736237511878835
0.2005929276321712
0.2186927847166025
0.2188874427806033
3.53824931731231
121.1958942055817
12.2757766847243
0.322093274385537
0.2844737103328577
0.2707757531665391
0.2791793246384167
0.4971003685958956
0.5522542732215342
0.5434411921267707
0.5437154197749059
0.5457080587139158
0.5469688052633689
0.5476304346576036
0.4120200651431556
0.4119369898474699
0.4121238698901166
0.4125177917740966
0.4146984985162832
0.4147921984941773
0.3622241300563302
0.1946265731550383
0.2120504867772576
0.2122678979938854
3.760698304987352
121.0605161546565
12.56769395795297
0.3112457513616035
0.2745975795553007
0.2614774733151068
0.2702180163756786
0.4816067520196354
0.5348055950538492
0.5262280922811621
0.526501644477819
0.5284353891260152
0.5296519242558563
0.5302847939156435
0.4000235515242042
0.3999511139959422
0.400127760701655
0.400524739433714
0.4026862562961404
0.4028353432157462
0.3513268527720185
0.1889839336594147
0.2057299508295549
0.2059765022820831
3.966028006458782
121.2363954566356
12.91182272565112
0.3011506836526142
0.2654029738467932
0.2528571490523647
0.2618443415590581
0.4667189583438388
0.5178927405580378
0.5095868370008246
0.509872141799561
0.5117567172500652
0.5129273520689812
0.5135435719928362
0.3906032821500204
0.3904918849017341
0.39067579077873
0.3910609808931817
0.3931622995377123
0.3922380719085881
0.3418744314922748
0.1836565318764498
0.1997919222946827
0.2001560484618183
4.158429730353213
121.6946480392026
13.30374916941165
0.2917081804647069
0.2567330425923223
0.2447164786880129
0.2539003744279981
0.4541312695749402
0.5040639436554465
0.4958810870626769
0.4961256922995746
0.497936279760005
0.4990900726814752
0.4996296118410165
0.3740109416280644
0.3739306649686646
0.3740993154886559
0.3744821680022909
0.3765687774963486
0.3768231243986009
0.3282091401109414
0.1786617887050485
0.1945078987095364
0.1946712928036327
4.343349744628153
122.4377461931345
13.71841980557422
0.2829448969007217
0.2489032780889554
0.2373104932584633
0.2464196142868896
0.4345637065941383
0.4811187083107081
0.4733102477016733
0.4735834618709046
0.4753174594588173
0.4764096254627288
0.4769478488414846
3.078059138519302
3.776095342092975
5.232262907668417
3.798518703213146
3.817569668926813
5.284216403196594
3.838876430844253
3.864199892619184
5.348654203415715
3.891626687699441
3.923304589415105
5.430361708618623
3.957306387018521
3.995259070539708
5.529873186493309
4.035302280173214
4.078525844414816
5.645079763193909
4.123168225330274
4.169822252070259
5.771423540514202
4.216894519240819
4.264667680852408
5.902676830161027
4.311717306689686
4.358276078333505
6.032177514269915
4.404740250440096
3.584897530782584
5.453920103141392
1.952715089027119
2.458908597176688
2.965018927064726
2.482485999723731
2.493752300188118
3.001549450223695
2.507750109950345
2.524217842654564
3.03823395065387
2.542247136781377
2.562841842683608
3.08472185643832
2.585117629653505
2.609781748664365
3.141267198800419
2.635909692331501
2.663968802518156
3.206647537757247
2.693059274013004
2.723340463353826
3.278309077480962
2.754019454587745
2.785063144902725
3.352768843814365
2.815755581825374
2.846043030390942
3.426273941475779
2.879928257041024
2.276146093537075
2.740472916854177
1.493517966271395
1.84604821250056
2.1082497687177
1.873086417400096
1.880587507733976
2.142498309340775
1.891036826022876
1.903485430384027
2.168639816265551
1.917109768612483
1.932656696744474
2.201824822838821
1.949435471572111
1.96803585184221
2.242094628239374
1.987473968686039
2.008446421432756
2.288458111083877
2.030133641930134
2.05273340025892
2.339230620876146
2.075688608893438
2.098947501391042
2.392082731910218
2.122007754118855
2.14473643516048
2.444352017277797
2.174639531061236
1.739822029793754
1.974847139650719
1.215598902341973
1.475685567605906
1.641071623295171
1.50538083144021
1.510903084589584
1.675991896337539
1.519031175008289
1.52922076665135
1.696356295289731
1.540188282789501
1.552935376115395
1.722437722818217
1.566373819529326
1.582032924236422
1.753971397558421
1.596744856682979
1.612989088789363
1.789638369835523
1.630067418189723
1.647832548342404
1.828716126330258
1.665994395903146
1.684540826376612
1.869703508673536
1.70300650937492
1.72116467777108
1.910412089896009
1.749892879570926
1.409466218008999
1.576154926181617
1.033629905135366
1.225067016664203
1.33931474280398
1.255789581664228
1.260196308575747
1.374689978041606
1.266782716108746
1.275425743430296
1.391326931988953
1.284822196655938
1.29623879009763
1.413173029408717
1.304729239010701
1.324705152264658
1.439028776374718
1.332817119461177
1.344216742884604
1.467168475047181
1.358336674211405
1.372411863465143
1.498242440423595
1.387138224604219
1.402478866987842
1.531463205101283
1.417950133120152
1.433015127063908
1.564745800178998
1.461821828572954
1.194241747476109
1.312809377538078
0.8989552773346055
1.044960719560232
1.128122921852958
1.074524319824534
1.078249188745546
1.162568886319433
1.083683207790325
1.091090782254348
1.176585619233256
1.099334330004499
1.112198979584343
1.195509325414137
1.050406753399985
1.136312715172183
1.192028863162473
1.094198381140509
1.145075083920462
1.240869113257198
1.157987537565602
1.17042086204804
1.264426905285879
1.18295926535409
1.196134898693797
1.292106693752086
1.209713147615894
1.222723394939781
1.320382780870724
1.252132775678102
1.039301545920051
1.125123434108197
0.7919822027537168
0.9102731340595041
0.9730122387235008
0.93663380161692
0.9397141935805533
1.004558500175501
0.9441788139574735
0.950910401219545
1.016015322896009
0.9597726160688621
0.9577364882777945
1.016930753893743
1.007616572888876
6.6
1.086706134395566
6.6
1.062859574858516
1.118252912805094
1.031169080951288
1.016169593122176
1.088717783241002
1.023911350843285
1.036360796402128
1.111894196834802
1.049081248718075
1.061023046645663
1.137027617698964
1.091225878068623
0.9208715269451268
0.9844870460543402
0.7061946357314181
0.8057046347717208
0.8549196538383825
0.8283055151166067
0.8306731277167313
0.8822038022546461
0.8341421937497937
0.8394635190379817
0.8926174175393735
0.8447939999329716
0.8593538725665982
0.8991930112241709
0.9087696853863814
6.600000000000045
6.600000000000003
6.599999999999985
1.315112806001307
1.16950984880987
0.8987997015204842
0.8991247272146242
0.9594918202046798
0.897997455464395
0.9073294978983693
0.9680322935759744
0.9206423589825733
0.9329199748910617
0.9932215764272979
0.9638890836293141
0.8260299406140935
0.8751082850157673
0.6369190565175469
0.722036207686485
0.7616307891018042
0.7410155724229734
0.7424928470418597
0.7842858529129614
0.744719919865192
0.7482316798030447
0.7912952612380465
0.7527585107103089
0.7736756219272773
0.8012422175748362
0.8349970806227633
6.599999999999905
6.600000000000012
6.600000000000002
1.446164589284142
1.451213434123659
0.7882695372879435
0.8266249894897296
0.8557944204858201
0.8200952475397881
0.8188294269286115
0.8555474339341008
0.826222893838915
0.8367496548127018
0.8804443341149791
0.8664510637919624
0.7510101832301349
0.7878568346617438
0.579944042055078
0.6538485678455458
0.6862267854949365
0.6697410573603103
0.6707028767607818
0.7047745805508627
0.6724340541293424
0.6752393665973379
0.709945137664156
0.6800194671427061
0.702219741888494
0.7278008386789212
0.765339519601271
6.600000000000019
6.600000000000038
6.600000000000021
1.279483802894031
1.332669187539922
0.7837113423222671
0.8162032184039398
0.7808946508556952
0.7999738829610438
0.7779485686485814
0.7656332240013857
0.7777904840684037
0.7782912808091131
0.7996743932272596
0.8013346666044251
0.6964320738526792
0.7192988443923034
0.5323875720815948
0.5974297758137066
0.6243245626547477
0.6107574184110688
0.6113819163562466
0.6396665745087091
0.6127888421956149
0.6152588058742089
0.6439209235815467
0.6197617032072461
0.6406142310319887
0.6644852871964934
0.7136048683809171
6.600000000000041
6.599999999999999
6.600000000000002
1.628875452606146
1.805701188712849
0.9859614501246892
1.007613118472274
1.02685445441415
0.8937269097023074
0.8191625462639609
0.8225843010500191
0.7798977131373654
0.7634243950985349
0.7745289266100845
0.7588382035123362
0.6774918665267334
0.6862223098335387
0.4921454848714856
0.5500403957931418
0.5727156920870863
0.5612177401694943
0.5615932899527079
0.5854089344460125
0.5627590050819925
0.564864877992826
0.5889647256086595
0.5691011369349833
0.58036949985481
0.6137203275127526
0.6765038322911187
6.600000000000039
6.600000000000015
43.42294432820622
1.32407136043685
1.494015055183288
0.960070273220591
0.9392826332791772
0.9736040960715665
0.8409670804784772
0.7758794752116527
0.7998266552467865
0.7415930681602441
0.726904784708554
0.7466688150907999
0.711398108177097
0.6625184399050638
0.6707741950964484
0.4576997822481379
0.5097114924312941
0.529076199512661
0.5191225941383674
0.5193379109011126
0.5396039547922356
0.5204018134278672
0.5226179545601261
0.5426161755753541
0.5262905142247192
0.5169047844553503
0.5586104621918485
0.674520222973061
6.600000000000016
6.6
13.38476412745324
1.157111077213202
1.244307935176419
0.8976044461194141
0.868912569067707
0.9040187941731356
0.7803523164534923
0.7261050671095938
0.7509052947127524
0.6980189392692275
0.6844912406050011
0.7059682912059116
0.6652386237204079
0.647333443182054
0.6553786215674887
0.4278839410338661
0.4750038382670794
0.4917215750560266
0.4830088151480503
0.4831619324256858
0.5005693280311525
0.4842715965101174
0.4856295465789608
0.5035074425387166
0.485349666858755
0.7994397697338117
0.6125261669665132
119.4232291570785
1162.615549818808
1952.484269583786
24.85863006822537
1.030915070257931
1.087040783144696
0.8443290196335054
0.8024552324776889
0.8351836034916551
0.7235988117892549
0.678548084768295
0.7019397689287175
0.6552689725768565
0.6418258564346068
0.6630344030848579
0.6241096167839957
0.6314161251082768
0.6398119325140903
0.4018066241962625
0.4448128803313064
0.4593984240329054
0.4516786220338976
0.4518337917837636
0.4669578456119549
0.4529740204668967
0.453707461033416
0.4690875688342799
0.4551712557791929
2.75108286809621
1.062350830187536
162.1134150674638
446.8268313197156
686.0755012363278
24.47257765281714
0.9339408964497452
0.9801477365492182
0.7835335529825946
0.739995625606525
0.7708314157050282
0.6713039536163001
0.6339846276548429
0.655904233897214
0.6143801478496659
0.6008890743802988
0.621097609604442
0.5869996575424014
0.6169653848905239
0.6243575712246661
0.3787740381144046
0.4182849347679144
0.4311325655927658
0.4242144508961595
0.4243867825787744
0.4376751838052141
0.4254617657251762
0.4260333135623136
0.4393716356740335
0.4316301735173466
8.7308265544573
5.502750393585607
180.0028039295978
250.4660831411473
322.309292920314
21.95434026118602
0.8546947218334495
0.892530398170838
0.7233333425087796
0.6827079615614828
0.7106886292386466
0.6236793527629775
0.5925148153077279
0.6128794586381695
0.5757384842141358
0.5624535833072398
0.5813447080521171
0.5529067912841473
0.6023464580620428
0.6099309263922347
0.3582718770382026
0.3947673450794989
0.4061801525067639
0.3999228266021727
0.4001047191276797
0.4118817417745313
0.4010470427316979
0.4019661371188477
0.4135929619963026
0.4192095975545042
16.93899886941695
12.74016902129929
181.7321802770929
171.6020277092227
205.0709060468188
19.56700096044826
0.7889753069979245
0.8204080157910393
0.6689764999433701
0.6320258581587301
0.6565650390973036
0.5808089349292553
0.5545185100252373
0.573103092310463
0.5398505184864365
0.5270185014902502
0.5443398617096601
0.5218057755979133
0.5870594578545498
0.5949722446971621
0.3398951882557458
0.3737670718560337
0.3839756987261195
0.3782838147412098
0.3784696668523712
0.3889834659591803
0.3791470117624996
0.3810572537410635
0.3909585798106729
0.423789727892111
24.22169109576508
20.77095475308568
176.2304964179369
132.7958273973274
148.2679866893795
17.57490219993912
0.7337773251398729
0.7601652677895743
0.6218972095705262
0.5877902792742791
0.609106784321113
0.542651134079602
0.520157585326137
0.5368816073160048
0.5071077438571922
0.4949749626362956
0.5105553298961806
0.4918586936922164
0.5700139762239811
0.5787597425852949
0.3233221581434807
0.3548977128340263
0.3640844624971207
0.358885316151567
0.3590743764941872
0.3685117726427054
0.359434376260007
0.3596551003596432
0.3699163749353472
0.4466955809677905
30.14964839045242
27.33831949631283
169.3142880228276
108.6474369717837
119.5474786786992
16.00961255801935
0.6868398230126179
0.7093326586266824
0.5810272277380326
0.5493530453248004
0.5678539958532741
0.5090573316277744
0.4893899752045864
0.5043289509660572
0.477587385209275
0.4662888519323965
0.4802258678455264
0.4655269499961079
0.5516881164985463
0.5609103309786821
0.3082950003081175
0.3378516707395425
0.3461613390186916
0.3413995743995358
0.3415889857467883
0.3501100606344371
0.3416900227446364
0.3419235439760596
0.3504220926332257
0.4874575983583936
34.98340263620145
32.69237259317126
162.0442947412643
92.13596286792811
99.64280644213895
14.80668929789791
0.646478383377779
0.6659004997878144
0.5452424323343145
0.5156648560351588
0.5319540188908926
0.4793602143894669
0.4618395910342857
0.4752470103122894
0.4509893967924695
0.4405853518055412
0.4530865719997036
0.442247982264288
0.532940628185076
0.5423060041709732
0.294599210626574
0.3223132467439103
0.3299125425323091
0.3255526548291841
0.3257383793277611
0.3334742688881994
0.3256716269426353
0.3264349579221203
0.3339594459599489
0.5450998783235285
38.91490195484505
37.05286075306862
155.0897889030331
80.42682800517568
85.81284171952089
13.87490416973927
0.6114421740715958
0.6283566634825046
0.5136471677773666
0.485836394108128
0.5003039742835068
0.4527738309068444
0.4370262546171742
0.4491171367354261
0.4269427524778691
0.4174628517385399
0.4287182278435941
0.4212528688786013
0.5142672496408633
0.5235468054022703
0.2820637890773725
0.3080978876862265
0.3150519165685893
0.3111129648107422
0.3113008380716276
0.3183585698546893
0.3111473184728755
0.3123849587040704
0.3192399683061234
0.714282917534269
42.11803581860282
40.61122685716049
148.7313255209797
71.82731187464846
75.81593390285784
13.15406748522501
0.5808037490853808
0.5956237188417144
0.485612962200704
0.4593076275253907
0.4721899865057428
0.4289286823203083
0.414639695065765
0.4255415417221342
0.4052092128515878
0.3966165380823498
0.4067731442827455
0.4021614604052796
0.4960371599795088
0.5050658491305805
0.2705470594190281
0.2950591345268735
0.3014411036370452
0.2978936262609235
0.2980821994208276
0.3045513219084672
0.2978889955616098
0.2996238234046255
0.3058598749074171
0.9837232819454363
44.58442900333984
43.44012527641569
143.0804886007518
65.3639980830164
68.3795246657439
12.60898248191208
0.5539351417878882
0.5669624460988055
0.4606352373250225
0.4356126720531974
0.4471577472502912
0.407476097131346
0.3944210443588284
0.4042890129773782
0.3855517536132633
0.3777626215058648
0.3869738493989015
0.3847181804659418
0.4784679006079257
0.4871583372187298
0.2599287782834414
0.2830769470264124
0.2889429982453151
0.2857495617466131
0.2859320152410919
0.2918833023966489
0.2857379616345141
0.2879665190737971
0.2936713186207028
1.301934225434785
46.40962804876137
45.56824094555665
138.2081549524784
60.44315965822896
62.74895024722112
12.21600249728323
0.5303151767325278
0.5417919808782191
0.4382048906382329
0.4143042310900474
0.4247195272522599
0.3880398846256827
0.3760421718650482
0.3850452967004326