/*--------------------------------*- C++ -*----------------------------------*\
| =========                 |                                                 |
| \\      /  F ield         | OpenFOAM: The Open Source CFD Toolbox           |
|  \\    /   O peration     | Version:  v1912                                 |
|   \\  /    A nd           | Website:  www.openfoam.com                      |
|    \\/     M anipulation  |                                                 |
\*---------------------------------------------------------------------------*/
FoamFile
{
    version     2.0;
    format      ascii;
    class       volScalarField;
    location    "12600";
    object      Ma;
}
// * * * * * * * * * * * * * * * * * * * * * * * * * * * * * * * * * * * * * //

dimensions      [0 0 0 0 0 0 0];


internalField   nonuniform List<scalar> 
7769
(
0.631599781572475
0.6316931709820564
0.6319524478511953
0.6323678335845397
0.6330457808151531
0.6340847272715944
0.6355471896975134
0.6373927448972529
0.6402427303798445
0.6439553711509064
0.6487259375411907
0.6546341103381831
0.661605946986807
0.6694028431519959
0.6776541138243335
0.6859343126292167
0.6938544487876235
0.7027244873923784
0.7090180401761137
0.7141508418064996
0.7182624667501057
0.7213466858618517
0.7233672339807983
0.7245083100627274
0.631295659301443
0.6313467352232874
0.6315403620552982
0.6318350915685701
0.6323424652409309
0.6331523812744894
0.6342390481313505
0.6362509501952487
0.6387902015386083
0.6422446261866306
0.6469057585895225
0.6529263453948886
0.6602661420993224
0.6686334241976229
0.6775313944151852
0.6864111557943413
0.6948218596318978
0.7047704350544161
0.7112837859819375
0.7164421494443571
0.7204600445588328
0.7234337180206728
0.7252961141691832
0.7263578907339304
0.63098502253327
0.6309610907929353
0.6310330081774451
0.6311463000680788
0.631378801011689
0.6317979119041183
0.6323465124562263
0.6343089291039337
0.636245705671875
0.6391269083834764
0.6434305759015715
0.6495921760968258
0.6577750850860792
0.6675049746248942
0.6779112968691207
0.6881014749296376
0.697462788310202
0.7086950136314855
0.7152934702474998
0.7204500981793144
0.7243383936240013
0.7271911542527101
0.7289551046254654
0.7299871804990598
0.6306735180249933
0.6305491863040183
0.6304547948716704
0.630318154483457
0.6301593735823972
0.6300313513946965
0.6298663695870719
0.6314013031526536
0.6323418232786249
0.6340838947545051
0.6373782086161699
0.6433239737620869
0.6532400518554068
0.6659079595477515
0.6793324352842968
0.6918077938952275
0.7025861860385565
0.7155836338658847
0.7220259082643511
0.7269486934426928
0.7304970263004116
0.7330054613860357
0.7345209226460911
0.7353941166879967
0.6304314999544414
0.6301907094344996
0.6299231415158943
0.6294913969574591
0.6288850538378205
0.6281292386130678
0.6271057011524952
0.6278282644446617
0.6273200469881516
0.6270750043791208
0.627945588201247
0.6315364479457287
0.6449344338705127
0.6646451749575902
0.6836777437706589
0.6994012080614813
0.7117533171743109
0.7266081544258016
0.7322117744197459
0.736302564265203
0.7390281072793444
0.7408084941217857
0.7418536029893515
0.7424065155685386
0.6303784774507146
0.6300219597998173
0.6296120099002832
0.6288973173878969
0.6278901640711907
0.6265268621111978
0.6245376464111645
0.6242076565361918
0.6218299446099573
0.6186967691612593
0.6153422581354282
0.6118107920126861
0.6234457141324792
0.6690232844644678
0.6954875128460692
0.7145359106103683
0.7275700866065403
0.7431578731465932
0.7465013942105209
0.7486689585628538
0.7497846357491074
0.7503101617052187
0.7505637845759318
0.7505820366525046
0.6305484811604262
0.6301256405473836
0.6296408450985423
0.6287142641357018
0.6274248503014014
0.6255817583064284
0.6228773417213447
0.6214349770658463
0.6172969172343546
0.6110814711505865
0.6003437278358663
0.6316977159039383
0.569006613424956
0.6974286905812503
0.7231818833111319
0.7438194160730763
0.7539946378338434
0.7662414696011524
0.7652668826161818
0.7637538931027623
0.7621087440962535
0.7607026546212444
0.7597589076854064
0.7589911155813259
0.6311697537175631
0.6306792477472498
0.6301408856942491
0.6290924891636276
0.6276803376847306
0.6255870217725552
0.622661011770216
0.6204409569323259
0.6151928021345467
0.6061602310467211
0.5901080734971794
0.5726908429641753
0.3711115106538178
0.8740122800028163
0.798717707232888
0.7986302317589518
0.7952003461738385
0.7954972649972436
0.786690047284627
0.7796248871520314
0.7742256031986275
0.7704132440163297
0.7680913356743153
0.7664993706876213
0.6322571188446214
0.6317527971832108
0.6312133857467442
0.6301632523327831
0.6287889753167869
0.6267243502095918
0.6240833634712711
0.6216525149279947
0.6168313057035604
0.6111417046246591
0.6077613019077907
0.6126477956573734
0.2363514491113763
1.094105682825804
0.9381184056189421
0.8818871678894521
0.8470910635199737
0.8245890980365909
0.8057212005946971
0.7925620397490023
0.7835218918571805
0.7775373217899421
0.7740616520937059
0.771902982251538
0.633804828425209
0.6333274175933864
0.6328506274575157
0.6319316347554617
0.6307455717439426
0.6289821187909607
0.626956290472249
0.624838036479326
0.6215073046079423
0.6178995104607835
0.6174306743681934
0.6161662311704025
0.196176632850678
1.215417427006409
1.043636268673467
0.94920193868814
0.8862096655864441
0.8369994445855716
0.8137671809490408
0.7977334481976656
0.7871297000910823
0.7801034228890591
0.7759734430891958
0.7734591833563712
0.6357797096862667
0.6353538430186741
0.6349831229894811
0.6342780867230251
0.63337904391337
0.6320885351870663
0.6307449685017329
0.6291032019441761
0.6268605012119882
0.6242326655143021
0.625502034322526
0.6260326021768532
0.03222414621181702
0.8705557516177812
0.8578001230699258
0.870599245931413
0.860454212017657
0.8208317540601594
0.80526177775319
0.7924748616790896
0.7838605334296812
0.7778051705882643
0.7742944070233998
0.7722018744171995
0.638104201379604
0.6377444091310144
0.6375004410049334
0.6370340168202353
0.6364529455751186
0.6356715420833466
0.634997064620835
0.6339197050651196
0.6327443738599041
0.6316871111582133
0.6345198088738702
0.6416819383373435
0.2534293727359523
0.874541382238238
0.8169270194454132
0.813658484883094
0.8087718522697603
0.7889151666409523
0.7860004744608968
0.7790855898946388
0.7739130682439715
0.7698499820536558
0.7673606925054285
0.7657884638603979
0.6406776897276445
0.6403885117768983
0.6402709013596714
0.6400308677621956
0.6397528815492004
0.6394388131088263
0.6393780443631089
0.6388484270483785
0.6388056153896655
0.6397772706804657
0.6492043708178618
0.6736526150947898
0.7016511968549378
0.7851128476506131
0.7743251537446294
0.7759399248507957
0.7754174453662962
0.7656812172288988
0.7653006298435395
0.7635335489339873
0.7614091807091247
0.759413446660535
0.7581223617840855
0.7572756941643511
0.6433963069110437
0.6431722758983296
0.6431668266236951
0.6431210901753835
0.6431055265203234
0.6431697517141061
0.6435571104414785
0.6435500969040879
0.6443284043425469
0.6457934713560785
0.6535614284589436
0.6486772590506377
0.6778923959754161
0.748451842164785
0.7406856391391147
0.7462510254262548
0.7493089126351173
0.7461565942006236
0.7480917489235158
0.7486535843486274
0.7486820929842761
0.7483634988709058
0.7480461321451276
0.7477856374973215
0.6461602567410869
0.6459866855810067
0.6460764580094619
0.6461881867564652
0.6463792740700893
0.6467134357950302
0.6473834178051016
0.647771071738683
0.6488961751113923
0.6507068044125797
0.660600023654911
0.6336065727028372
0.6513180303964576
0.7105217391718887
0.7133815344543646
0.7231350930268784
0.729124124302259
0.7301746750318174
0.7335641607908284
0.7355818662324328
0.736853881721547
0.7375833811833812
0.7379605145682193
0.7381514808240689
0.6488981412962681
0.6487601896309546
0.6489282421926349
0.6491606354516417
0.6494993135641953
0.6500087637856805
0.6508635648147055
0.6515533111043535
0.6528048537366894
0.6544322852410592
0.6637833420521434
0.6256012737145084
0.6607840792895251
0.6951037621453006
0.6974288779740371
0.7071525411103848
0.7139986978463425
0.7176749594907905
0.7217091486161278
0.7244824559318708
0.7264179121264116
0.7277199004700955
0.7284774455386543
0.7289104148962136
0.6515672481195508
0.6514489719122526
0.6516735598211362
0.6519878193513972
0.6524221434035282
0.6530410580373998
0.6540157362181964
0.6549629399763295
0.6563281158186094
0.6580597306997543
0.6683494770539132
0.6191024251618261
0.6690731554263702
0.689213774271805
0.6886689069309642
0.697043724014896
0.7032814960457278
0.7081507914013538
0.712269366637041
0.7152950793530175
0.7174918813459649
0.7190466260174875
0.7199764114443056
0.7205274774662076
0.6541236319764374
0.6540107937858141
0.6542712907084599
0.6546362348572372
0.655129048681099
0.655813674048987
0.6568607978499427
0.65805146910506
0.6595049374002276
0.6612834392120647
0.6724673847236334
0.6138408782038491
0.6745989865234275
0.6863122971716388
0.6838989305864237
0.6905999415125865
0.6958748775683498
0.7010378304178144
0.7048871430796785
0.7078261762262013
0.7100141247875966
0.7116107902326619
0.712580668913641
0.7131734388234144
0.6565328245089792
0.6564149742991955
0.6566971432697924
0.6570901320931869
0.6576135914822469
0.6583309880893006
0.6594135962622701
0.6608342853504017
0.6623038727957903
0.6639864466424148
0.675425963311424
0.6088531415514237
0.6781629714785266
0.6846156922577237
0.681263972246356
0.6864353000377642
0.6906991217784443
0.6957391893457974
0.6991390573538147
0.7018152617137697
0.703840830003472
0.7053505344520933
0.7062729036007092
0.7068434751608745
0.6587757279223027
0.6586426678019192
0.6589376431001995
0.6593423225692782
0.6598748682610085
0.6605997333336625
0.6616900075889549
0.6633332724166908
0.664755229065655
0.6663364826110936
0.677547737065278
0.6051626372097528
0.6815191198458791
0.6835934993784103
0.6795963843376711
0.6836074454032937
0.6869426614521952
0.6917381652382565
0.6946473067168007
0.6969920769234557
0.6987837916582391
0.7001406429182021
0.7009672727786423
0.70146984128836
0.6608431542155272
0.6606855539943344
0.6609863841270055
0.661390685884793
0.6619158946767277
0.6626281885728728
0.6637039982614822
0.6655610628224282
0.6669320945242208
0.6685451730542455
0.6793347023187877
0.6023197881010476
0.6843029664432174
0.6831473408241078
0.6783357953144279
0.6815421181139151
0.684095316146247
0.688663132155481
0.6911069006167865
0.6931122065847827
0.6946500046860746
0.6958295278838373
0.6965425016352176
0.6969529534039857
0.6627318980030048
0.6625447904041066
0.6628428702356174
0.663236932964415
0.6637424305275038
0.6644257180779617
0.6654698738190756
0.6675170391134048
0.6688323515716658
0.6704884594932988
0.6807735780392727
0.599958859563329
0.6864344299796764
0.6828660210432814
0.6772395541208283
0.6799256771821582
0.681881311623296
0.6862651610787933
0.6882857313465729
0.6899732991904192
0.6912673425066392
0.6922694472992147
0.6928685689338661
0.6931791931150776
0.6644442948875242
0.6642280710716872
0.6645120901266428
0.6648874031525722
0.6653644778818802
0.6660063590012182
0.6670125131529139
0.6692221571096558
0.6704800975692928
0.6721464391344121
0.6820018277293679
0.5980929202885161
0.6880764920148136
0.6826954250074069
0.6761673586727734
0.6786301676074156
0.6801332930859889
0.6843545558290213
0.6860074615711717
0.6874131896272911
0.6884900309810872
0.6893283188549911
0.6898225052819077
0.6900347524999237
0.6659881784215032
0.665743790339677
0.6660037046926504
0.6663534255716098
0.6667955875121816
0.667387629980512
0.6683701987968295
0.6707111572868316
0.6719325326680783
0.6735281271996955
0.6828903385422419
0.5967174550112471
0.6893160739197286
0.6824929176676257
0.6752328187214799
0.6775316785162305
0.6786769444435425
0.6827737071368575
0.6841389664353681
0.6853046373200106
0.6861973105738496
0.6868917158554076
0.6872946085482924
0.6874140137622312
0.66737331723249
0.6671002221536266
0.6673308902549362
0.6676502816763499
0.6680516522629145
0.6685861085453735
0.6695354842601805
0.6720179810597697
0.6731897523880667
0.6746557038924941
0.6834858400228065
0.5958271109132132
0.6902061049029147
0.6821809390413762
0.6744903119762297
0.6765384969335646
0.6774106130565193
0.6814159270123865
0.68258530772718
0.6835517500284114
0.6842918580842123
0.6848631127634845
0.6851908781132171
0.6852237316680201
0.6686100774723918
0.6683093836678948
0.6685082439767764
0.6687948981576456
0.6691532196010452
0.6696336210085161
0.6705591764173247
0.6731284019467909
0.674230893629824
0.6755592586656954
0.6838567065807906
0.5953091365476059
0.6908109954168399
0.6818419780422361
0.6738463207224177
0.675706619641058
0.6763317976889391
0.6802752472839318
0.6812874121011884
0.6820836944370596
0.6826960978234826
0.683163200446776
0.6834333787404091
0.6833846885913777
0.6697116882888223
0.6693842795773234
0.6695509814803179
0.6698051568301029
0.6701218820496944
0.6705540389174478
0.6714514678941818
0.6740961811143563
0.6751141682903917
0.6763282330127131
0.6840984872232013
0.5950406906506869
0.6912418690344958
0.6815261917828315
0.6732911434019323
0.6750677805089287
0.6754578389678324
0.6792888707200144
0.6801784482489625
0.6808390005461216
0.6813480513704745
0.6817299329381504
0.6819578607819409
0.681832235853292
0.670692315747079
0.6703385062546091
0.67047354368934
0.6706969385322153
0.6709739544763818
0.6713602175101016
0.6722240464443546
0.6749317295596445
0.6758959342039343
0.6770249105601813
0.6842582302553664
0.5950353357378176
0.6915320578080278
0.6812600121037804
0.6728217164306538
0.6745885837332329
0.6747670212078899
0.6784536743939246
0.6792376075873396
0.6797816915849831
0.6802040562989526
0.6805177219073036
0.6807072140433188
0.680515163796786
0.6715659146971814
0.6711858516319932
0.6712896540922958
0.6714835447620596
0.6717208765919618
0.6720605115526815
0.672887933519529
0.6756276697438585
0.6765577499887719
0.6776327383621874
0.684326604364488
0.5952647527852424
0.6917028962612397
0.681045461432885
0.6724319348906823
0.6741931122773431
0.6742464359866296
0.6777536298893674
0.6784371923255831
0.6788828607762883
0.6792306274473454
0.6794880946001114
0.6796322557680178
0.679394159557468
0.6723473456618552
0.6719402945799012
0.672013757900337
0.6721803657128502
0.6723790450363603
0.6726743242631619
0.6734638986218106
0.6761983096966925
0.6771027197541044
0.6781363612665103
0.6842876835916191
0.5956691072717423
0.691775460023199
0.6808893616080705
0.6721193793264645
0.6739065172328483
0.6738292733878987
0.6771487499913639
0.6777455366227527
0.6781101137460203
0.6783920262699776
0.678601466903679
0.6787065065363533
0.6784334845545164
0.673050526018381
0.6726154167297457
0.6726596475000747
0.6728027266037593
0.6729650856122938
0.6732213561663116
0.673981188320493
0.6766888242860408
0.6776347545947239
0.6785856804970277
0.6841721564889226
0.5962525232914716
0.6917393523547442
0.6807845169886665
0.6718441760177566
0.67360194019135
0.6734223984521487
0.676600504278056
0.6771416522542807
0.677436648528696
0.6776607088381852
0.677830118871328
0.677899325710846
0.677602329340064
0.6736884866881161
0.6732241725343218
0.6732397690675996
0.6733621527084103
0.6734909899267513
0.6737122300994081
0.6744441987193514
0.6771021892944179
0.6781685661635554
0.6790195248835461
0.6840163438387999
0.5969724557070729
0.6915807492966467
0.6807013898266167
0.6715914165951877
0.673328480749227
0.6730906058122078
0.6761257495143138
0.676608335861927
0.6768382901771494
0.6770142730332845
0.6771506357127098
0.6771851575040619
0.6768701246864568
0.6742676390483041
0.6737693392118695
0.6737604934249979
0.673860001579585
0.6739591271564443
0.6741382461769323
0.6748380459372177
0.677414200710812
0.6785558528790958
0.6793787954898841
0.6837825343411237
0.597772873436587
0.6913166910385017
0.6806518198414893
0.6714274620146327
0.6732070333032627
0.6729113358788407
0.6757364319208988
0.6761433303672421
0.6763049512516232
0.6764430019934068
0.676548417037906
0.6765533623575215
0.6762194085638937
0.6748116350827905
0.6742633145325704
0.6742490882095795
0.6743191461177054
0.6743996811065341
0.6745303359834368
0.6751719194100989
0.677629800428091
0.678777334585466
0.6796391551247677
0.683465823218194
0.5986757718294258
0.6909695480174287
0.6806174082761571
0.6712987668198254
0.6731361982092273
0.6727991473255486
0.6753866561755489
0.6757047984142794
0.6758001667354666
0.6759204404123256
0.6759850675339908
0.6759845447010747
0.6756219807260689
0.6752270245151678
0.6745617518846375
0.6746188977796379
0.6746431289605238
0.6746905539446854
0.6747407828705204
0.6754528774060465
0.6778430795306338
0.6790154944339102
0.6799143045959288
0.6831605817808325
0.5996423431445174
0.690599376275696
0.6805459565353388
0.6710912730604387
0.6729488125532872
0.6725869339311891
0.6750876669517182
0.6754753730511502
0.6754359356059777
0.6755934868009971
0.675547416990655
0.6756659003917241
0.6751569541952843
0.6760140375597954
0.6753239564645889
0.6752899052886865
0.6753434171071705
0.6753355911547517
0.6753618678495038
0.6759565598123943
0.6778361209643686
0.679225398702514
0.6801824287399915
0.6829318735235157
0.6004721085551419
0.6903050474176823
0.680508778031527
0.6709266180889308
0.6727965166442613
0.6724550012004269
0.6745634580310844
0.6747539742927325
0.6747445894985342
0.6747791922371826
0.6747960845234827
0.6747788207169664
0.6743250604462354
0.6370312854299576
0.6382540464181774
0.6388310150964351
0.6396442645802253
0.6413745833689892
0.6421023126252603
0.6432522862223137
0.6455292887064785
0.6463248055281448
0.6479875990248967
0.6508542724031605
0.6516508151805461
0.6539420432885169
0.6573905469880483
0.658096261702192
0.6610552668251087
0.6649827118012376
0.6655047076669279
0.669069313202603
0.6732868603077833
0.6735658759303123
0.6775690763494517
0.6818516455663703
0.6818732548928349
0.6860947627968736
0.6902294076256286
0.6900062656833212
0.6942069454771803
0.6978697365170887
0.6977683686985124
0.6355519555676336
0.6365893530802724
0.6375951687957683
0.6377513951998716
0.6393434777568917
0.6405922442016909
0.6409790563186285
0.6431894533641921
0.6446234861628604
0.645507697403104
0.6484421354405744
0.6499256266300888
0.6515996744243286
0.6552899587371248
0.656587629789228
0.6592753684721987
0.6636230212782999
0.6644616908603178
0.6681830449642436
0.6729076156097655
0.6731405960973795
0.6776882596825946
0.6824514807873238
0.6820824039698228
0.6871289174210848
0.6916504854335335
0.690756248655903
0.6959809408835561
0.699879259613898
0.6989479530698052
0.6331240845851884
0.6338002540349166
0.6354011507260022
0.6345310577758794
0.635730240545499
0.6378227826249246
0.6369270501481578
0.6388275496953136
0.6413672063384086
0.6408426572175862
0.6437010606222991
0.6464958850810182
0.6469918373779859
0.65100430020545
0.653562920363654
0.6558786200866821
0.6610838268227933
0.6625810517683922
0.6667889296545121
0.672620967570091
0.6727712499276179
0.6784562382963013
0.6841829189641166
0.6831596761350405
0.6896776425772441
0.6948683924435919
0.6929670670443662
0.6997244600374446
0.7039392763715219
0.7019194118344673
0.629781038033411
0.629927567410421
0.6320667602080017
0.6300430313628762
0.6304048785897743
0.6333760853235991
0.6309217427547977
0.6318765917334718
0.6358026239438928
0.6332333842226172
0.6353625626354412
0.6401746297286596
0.6384885402606966
0.6424516820454306
0.6475680757329821
0.6498114964602582
0.6570071501976624
0.659276467471911
0.6651471736134069
0.6732350521432861
0.6727472611740763
0.6809660231563106
0.6882736887476226
0.6858319445620009
0.6950120651805063
0.7011126725273586
0.6974651411471333
0.7066167599877221
0.7111710457410549
0.707508262389468
0.6259980380214066
0.6254417315929123
0.6277438761195525
0.6246176663218996
0.6238365598800134
0.6273094674033918
0.6230366781698966
0.6223742142208805
0.6275053888379987
0.621967687050031
0.6217205002643194
0.6294287603849587
0.6221862411427436
0.6249880114979286
0.6351936665641402
0.6372215169854801
0.6538195748626449
0.6548113226931509
0.6652308719990602
0.6774467724148294
0.6746552816287399
0.688246399412237
0.6976289896991036
0.6920258891154744
0.7057868795855624
0.7127152101110619
0.7059874945329361
0.7186304355535155
0.7232578697160508
0.7170881970019595
0.6226508328134458
0.6213381491381949
0.6233051667465953
0.6193964133172747
0.6173127356704974
0.6204855218857804
0.6147456991484129
0.6120472234155376
0.6170738858281398
0.6090231658812186
0.6011768332842352
0.6129580145511151
0.5994825069680887
0.6335192606204765
0.6171794519019049
0.5952232972549767
0.6632665608506655
0.6574593947853236
0.6764569405491389
0.6928429011000666
0.6831126437348218
0.7072008503004984
0.7181642006464714
0.7058871669316539
0.7268744124108315
0.733618890439219
0.7216465024774552
0.7387975480757766
0.7424601581347574
0.73274794119641
0.6206287430199662
0.6187841017390937
0.619818509748626
0.6159869275950579
0.6129000749305019
0.6146960874876702
0.6084593858233551
0.6027503038144428
0.6072663549849256
0.5899070041292425
0.5991114632593152
0.5781685119740356
0.5368049314995689
0.3294833066569271
0.540859010257054
0.3427079342732555
0.6729155335072597
0.6907160352236754
0.7791290171610571
0.7467444995988473
0.707774919233548
0.7500439312423295
0.7599575289421227
0.7354771811322987
0.7667179503165183
0.770270555518791
0.7495209164465629
0.771768555546503
0.7720435885732287
0.7571749915441681
0.6206352888909965
0.6186226021098598
0.6183817501169688
0.6155074652464412
0.6122082260370026
0.6116484137507434
0.6076717209958402
0.6033751581678928
0.5996565152215326
0.599520358003969
0.6221590403122539
0.5878368813283614
0.6042259750910367
0.1898915223129511
0.1837118834103112
0.2537011750871877
1.03263998799651
0.8744408974929871
0.9856987674253517
0.8999471983191762
0.8050339438365397
0.865294338757885
0.8491302984182461
0.7986012786228223
0.8381803648088564
0.8288407703397014
0.7970935245269442
0.8201243166136517
0.8122787901470828
0.7921443875487355
0.6228594793677165
0.6212893114077704
0.619655943714471
0.6190068920877327
0.6172265042245508
0.6142420997231713
0.6151837804203588
0.6138194377154936
0.6090395153845307
0.6176476387904563
0.6381911718174532
0.6171210486091138
0.613666673332915
0.1667966837725336
0.118907308338719
0.1675753259325971
1.256462540809625
1.166276230517969
1.195629254668794
1.090009548026836
0.9996219288955176
1.01018913742013
0.9620649564203545
0.905034999429147
0.9254236465083462
0.896175593289352
0.8629597440846409
0.8718196627183837
0.8529603649440186
0.8328991103478255
0.6266942416691521
0.6257586112180523
0.6234113399416058
0.6240822753776341
0.6229303625173712
0.6200462257492555
0.6213216818494826
0.6207578392458325
0.6164693842771934
0.6240717739875935
0.6420219822837709
0.6288754101634848
0.6207487137014178
0.1234350677614344
0.1107831353120859
0.1216005557156677
1.332572825264117
1.339607389529194
1.330089082969703
1.262918285095184
1.134088694708185
1.149284102954165
1.057053349547151
0.9909010801254617
0.9825850606672524
0.9285122146517687
0.9152321175107528
0.8919380077397001
0.8675729262998854
0.8619233476998958
0.6313207406422122
0.6309235963164163
0.6282346107787895
0.6297200325045367
0.6290660331352613
0.6259028026776401
0.6279697635800013
0.6287854763798698
0.6237868294595728
0.6322727607992052
0.6528195867397246
0.6371452652725916
0.6327230091806196
0.09136492114063564
0.06746149687689001
0.1195999522723398
0.8035324923322248
0.8266734159325732
0.8524670825542945
0.8411710982492893
0.8613956283080857
0.8331903853138631
0.8371116915098616
0.8594841808285112
0.8382708426813571
0.8355253640617699
0.8715960381136491
0.8328080267783872
0.8272704400962825
0.845528191197727
0.6363465769769423
0.6363646167793766
0.6335611433197681
0.6357326821601169
0.6357193461322049
0.6323347214191265
0.6355540788693914
0.6367149204926295
0.631720309870504
0.6416814792795416
0.6596532712964023
0.6469412421217855
0.6530659972325186
0.01478641023670669
0.07401136074859935
0.7163924737345815
0.8678380251774673
0.7799047074627915
0.7969529747723357
0.8025206247244004
0.8239268273468029
0.793186069200484
0.7944900083349851
0.8149125277230964
0.7935646358874314
0.7926563740987085
0.8120461311754821
0.7915783723272912
0.7891094237064555
0.8028778750724492
0.6412653774505278
0.6416269444440772
0.6389581509677035
0.6416701908841262
0.6422886299690508
0.6390662620098854
0.6430419057871626
0.6450229143230162
0.6418503499059239
0.6512453286762425
0.6699164719332183
0.6683556578033426
0.7050559716505146
0.06609025580520059
0.04610096052189546
0.6860260094090642
0.7804395244212321
0.7717990902924962
0.773400384088928
0.759500636402575
0.7766733538880672
0.756946902528614
0.7590985339790586
0.7755046463946433
0.7601200152688103
0.7611711140373369
0.7759723130601567
0.761572358299507
0.7614418558437275
0.7730339703965142
0.6457857482975148
0.6463910379975234
0.6440493621239007
0.6467054588705994
0.6474917186031576
0.6449747853239228
0.6483855382850063
0.6504638278270768
0.6474750171517172
0.6577575579110575
0.674780146090704
0.6701964397964929
0.6444969177526377
0.2240946665133857
0.1027084078906541
0.6500754121763906
0.719136344834433
0.7403739761717167
0.7256161349316972
0.7229387127581124
0.7399050901919452
0.7253027613872431
0.730021090063797
0.7435164798938345
0.7336691604903161
0.736595357006145
0.7480765266782493
0.7383637009935625
0.7396824665673233
0.7495495036033404
0.6498010566888306
0.6505604287765482
0.6485652618450566
0.6509587663596045
0.6517926432321515
0.6497810048442952
0.6526317579836574
0.6546679052785463
0.6529702375041238
0.6617898156690408
0.6735990637041231
0.6739768803923791
0.6294109286781338
0.3060353191820319
0.266969569512879
0.6561758702941608
0.7001784204049287
0.7068322191043788
0.7005584226458934
0.6983799291771672
0.7081933774926991
0.704071168961127
0.7093771654857408
0.7183952164513258
0.7141848295404375
0.7180479863740346
0.7264718600631735
0.7208039236221928
0.7229498533632061
0.7309019473996179
0.6534077474467284
0.6542513524759966
0.6525174381835283
0.6546649279725003
0.6554853995677387
0.6537310742309537
0.6563320839718799
0.6584984251208169
0.6565714240168439
0.6661767320979827
0.6758318547555581
0.6748195985179406
0.6221000188301873
0.3661068850453455
0.3392159008561147
0.6652569989921953
0.6955429866448902
0.6969556813646168
0.6913307561746542
0.6873262474310918
0.6914585796332839
0.6923226349669179
0.6969000703274588
0.7021561064952228
0.7014284698352842
0.7050914868875973
0.7108013530702387
0.708044660369734
0.7105250250828096
0.7165393332089114
0.6566626970868521
0.6575997430539081
0.6560488035457507
0.6580277540316674
0.6588988841719553
0.6573231234070769
0.6597952365844111
0.6621726851385251
0.6604406582544023
0.6706068121417247
0.6767255001951801
0.6763987145195721
0.6164064011918431
0.4077250578793192
0.3885747306706091
0.6721787650069208
0.6942201260459355
0.6946437482397589
0.687458830978697
0.6819614581119364
0.6840219680491343
0.6858344817052002
0.6895256345717907
0.6926484890004505
0.6933888643814157
0.6964801895605672
0.7002543288796484
0.6991730341465067
0.7015228300469364
0.7059457873350213
0.6596016312264447
0.6606066896021479
0.6592372868516958
0.6610142286601786
0.6619120221313983
0.6605481251437094
0.6627628875993817
0.6653458406285434
0.6638891332671329
0.6741257643656121
0.6768096542646607
0.6768353407970694
0.6111913794793632
0.4383730152207794
0.4243016967541946
0.6765452307984553
0.6935031062112851
0.6938107816598135
0.6853515531207443
0.6790614264661248
0.6802341774147384
0.6823569366062813
0.6851106775110686
0.6869557343019267
0.6882541105995782
0.6906834221335422
0.6932059968354894
0.6930134765741784
0.6950874572184991
0.6982973894935066
0.662244955504853
0.6632690685252719
0.6620708381789446
0.6636301765309619
0.6644961397705618
0.6633391373772181
0.6652645898444365
0.6680773973692152
0.6668245474101985
0.6765817066074059
0.6766238531573175
0.6766391000084594
0.6067501909909317
0.4604931525025766
0.4503922092665114
0.6798971846822263
0.6931053964021309
0.693263773179518
0.6840057301312558
0.6774004569994394
0.6780941537605157
0.6803256607283976
0.6824405100756075
0.6835791171081077
0.6848632465636946
0.6866669812505751
0.6884175649510107
0.6886344144677992
0.6904511351819255
0.692794551406954
0.664604073595785
0.665617388531544
0.66457061819237
0.6659361668375439
0.6667807650019112
0.6657631764312758
0.6675421954200577
0.6706367128764911
0.6694556215942971
0.6785252320900441
0.676465386135683
0.6765661117585521
0.6036064232481617
0.4762485773443263
0.4690423130343698
0.6830750246678857
0.6933536977097525
0.6932197019998193
0.6833678802571871
0.6765156444658943
0.676843525711665
0.6788868087230099
0.6806473788602568
0.6814144316354406
0.6824621981842691
0.6837663645437414
0.6850267455956746
0.6853722116515517
0.6870033000597883
0.6887619952749862
0.6666878748484997
0.6676899812412755
0.6667755826875585
0.6679839432561101
0.66883746449876
0.6679450620645108
0.6696576720760918
0.6729309808456758
0.6719371670320505
0.6801566179005448
0.6758700095873167
0.6761791335979451
0.6010164179620545
0.487504550558081
0.4823132735277088
0.6854935599333487
0.6937739504560643
0.6936137019229797
0.6830193930019735
0.6760108449295062
0.6761751758450874
0.6777086685139813
0.6792727758087266
0.6798474765655591
0.6806395336985593
0.6815671757711893
0.6825095273804458
0.6828650147830745
0.6843623284654998
0.6857138689323187
0.6685072652807159
0.6694870098829937
0.6687076601628651
0.6697497719403527
0.6706069583779311
0.6698561399603288
0.6714169460799393
0.674871021849455
0.6740305971057505
0.6814650422649162
0.6749865667643609
0.6754232753206441
0.5989215750805934
0.4957326068983443
0.4919010851445532
0.6873342736518807
0.6941209290173556
0.6940121363836061
0.6828052626179061
0.6756506305626445
0.6757569213950648
0.676602405714838
0.6781598905572617
0.6786108600882798
0.6791997476083343
0.6798477964106532
0.6805725880399166
0.6809075914857188
0.6823034170744028
0.6833597434401008
0.6700907728792589
0.6710476268375888
0.6703841766824585
0.6712937276600131
0.672138286634281
0.6715020064244237
0.6729272981132488
0.6764670585317052
0.6758037100797082
0.6825204641088577
0.673998489481928
0.6744767368834541
0.5972894815946518
0.5017493775162865
0.4989269086875449
0.6887288824836226
0.6943765184198609
0.6943203121438709
0.6826188453349673