/*--------------------------------*- C++ -*----------------------------------*\
| =========                 |                                                 |
| \\      /  F ield         | OpenFOAM: The Open Source CFD Toolbox           |
|  \\    /   O peration     | Version:  v1912                                 |
|   \\  /    A nd           | Website:  www.openfoam.com                      |
|    \\/     M anipulation  |                                                 |
\*---------------------------------------------------------------------------*/
FoamFile
{
    version     2.0;
    format      ascii;
    class       volScalarField;
    location    "12600";
    object      nut;
}
// * * * * * * * * * * * * * * * * * * * * * * * * * * * * * * * * * * * * * //

dimensions      [0 2 -1 0 0 0 0];


internalField   nonuniform List<scalar> 
7769
(
0.0008581391421951122
0.000858257216101113
0.0008585435571082706
0.0008590074913107198
0.000859770934174541
0.0008609516327212576
0.0008616636469496656
0.0002534019267730199
0.0004346787266276635
0.0004369561216929857
0.000439967833257735
0.0004437135422017961
0.0004481417893178264
0.0004530935820206054
0.0004583219805411943
0.0004635475361182267
0.0004687013694257438
0.0009424158886287933
0.0009547123696961808
0.0009625916304120561
0.0009676832535058311
0.0009714093001587919
0.0009737763969604212
0.0009750970842091033
0.001053302499841444
0.001053469146993348
0.001053857591484744
0.001054489125315726
0.001055516185910196
0.00105708916313759
0.001059024183118699
0.0004736139266681116
0.0005752898934944617
0.0005781940885151353
0.0005821927182827877
0.0005871098339169052
0.0005928712271201231
0.0005992787916828834
0.0006060341957529559
0.0006127945239000305
0.0006198675684711261
0.001146694439918231
0.001172784627765944
0.001180163320575563
0.001186413468162525
0.001191023842008525
0.001193991069267908
0.001195643581099337
0.00113509084997249
0.001135295402745878
0.001135759875461495
0.001136509848854027
0.001137721512071074
0.001139562852344545
0.001143434031043097
0.0004971142460586326
0.0005834288508136589
0.000586231620245008
0.0005903228882102895
0.0005952759217463721
0.0006009835831111248
0.0006072712722678937
0.0006138902768183293
0.0006205443889408637
0.0006282629944199488
0.001216953350691494
0.001266010302444032
0.001270052239878316
0.001276710941587441
0.001281744426299486
0.001285005859854285
0.001286818187679865
0.001153678943595769
0.00115391253754923
0.001154431603224458
0.001155265388423434
0.001156604862865
0.001158625244020462
0.001164471360735395
0.0004969191383112487
0.0005745108420381466
0.0005771862381618628
0.0005813205005903102
0.0005862257074120548
0.0005916128736748015
0.0005974061805528152
0.0006035208622207908
0.0006097706706571637
0.000618208055657912
0.001208471870721198
0.001289600755865961
0.00128890830334406
0.001295411975008696
0.001300672083939143
0.001304082662996811
0.001305982960527799
0.001150226799711795
0.001150481356661011
0.001151038684022805
0.001151939071880711
0.001153376816966959
0.001155531105563442
0.001164662423859414
0.0004933764493599332
0.0005662620559140488
0.0005689600812229322
0.0005732966221745537
0.0005786687981719007
0.0005835616520181989
0.0005881235808522017
0.0005934439622988274
0.0005991743165723184
0.000608664239821259
0.00116858770690304
0.001288168355090969
0.001282936184366946
0.001288873819975044
0.001294380298234529
0.001297935723320938
0.001299931034331432
0.001141162479458179
0.001141424932408501
0.001142001962311111
0.001142950668690235
0.001144459290302404
0.001146719731634704
0.001151194709991379
0.0004904954225361049
0.0005593627224537424
0.0005622759737182387
0.000567066855205016
0.0005778224280956521
0.0005827895200858577
0.000579850365021362
0.0005840671888357012
0.0005892093279046432
0.0006000764728650354
0.001114282235722842
0.001278421997335003
0.00127057008372027
0.001275608915549843
0.001281498036736476
0.001285286277350207
0.001287432402942345
0.001131375147222299
0.001131646465920575
0.001132232373945689
0.001133212341164111
0.001134760420465949
0.001137105493534004
0.001136181435251082
0.0004884140438422588
0.0005533722210489826
0.0005565289662272667
0.0005621126693374996
0.0005736735671621709
0.0005859820626091606
0.0005745928392000573
0.0005743330082936226
0.000578890639855648
0.0005914622518063183
0.001053682833651184
0.001264011276835298
0.001257417114658284
0.001261436555592625
0.001267843074992002
0.001271959491275917
0.001274303971882085
0.001122053400951472
0.001122332998548423
0.00112292320603877
0.001123918240376863
0.001125479678699919
0.001128315649440037
0.001121171350267259
0.0004845721906122789
0.0005479615007604352
0.0005514712200787419
0.0005581602382292545
0.000585030959824899
1.500000000000002e-06
0.0005704052457985538
0.0005619783579190058
0.0005671018821921105
0.0005819941144400298
0.001010375705215376
0.001248878433902026
0.001245193847111332
0.001248315539926818
0.001255234842091047
0.0012596953592604
0.001262246392397719
0.001113394476478128
0.001113672823600582
0.001114256534939661
0.001115241255793919
0.001116803297321729
0.001120520655325221
0.001105363224935882
0.0004811489147538085
0.0005428675115389081
0.0005461382287951623
0.0005515646349047047
0.0005884535366393913
1.499999999999996e-06
0.000538735307134486
0.0005513174587289442
0.0005546496545698057
0.0005723289904837567
0.000974931429186708
0.001235104427965006
0.001234532051954892
0.001237016583427334
0.001244289008914717
0.001248997465551327
0.001251693132847986
0.001105355044718584
0.001105624971686471
0.001106189942308518
0.001107136333402769
0.001108706944955595
0.001113510988447388
0.001088330323988485
0.0004780928065491799
0.0005380107489626606
0.0005409557098040596
0.0005464807910638501
0.0005912086557441149
1.499999999999996e-06
0.0005228734253665493
0.0005489307495343734
0.0005454884957047367
0.0005658175497996194
0.0009615862783167202
0.00122606635028034
0.001225972590744855
0.00122805217688153
0.001235293950784282
0.001239983115380349
0.001242651764111589
0.001097855820182409
0.001098113735981414
0.001098651906411635
0.001099542701638199
0.001101158075009157
0.001107036429042204
0.0010703461638315
0.000475344646742488
0.0005335368660756978
0.000536306640919441
0.0005417159825116565
0.0005950869120545004
1.499999999999995e-06
0.0006280169862221465
0.0006076186047658265
0.0005661313644531869
0.000566322102656851
0.0009671718194163279
0.001223314844264757
0.001220844316201634
0.001221928356255271
0.001228641077321989
0.001233028973013117
0.001235521456232565
0.001090831731128847
0.001091076387221468
0.001091584562735896
0.001092415588718361
0.001094134072786542
0.001100895891540592
0.001052017288242518
0.0004728773870749322
0.0005294101527807268
0.0005319650961756561
0.0005372460943358593
0.0005993227388961049
1.499999999999999e-06
0.0006629155332896062
0.0006219576987093399
0.0005769327440514054
0.0005660961040083086
0.0009826375597654763
0.001224654399714803
0.001218343155625125
0.0012182273850063
0.00122414178584836
0.001228080565468641
0.001230325683269282
0.001084235932763981
0.001084466045028268
0.001084946673102688
0.001085723494286477
0.001087614021596051
0.001094961768629136
0.00103402959730402
0.0004706784902770355
0.0005255947589352766
0.0005279372519876788
0.0005325198459653419
0.0006165538286647025
0.006081936096876328
0.0006686333297861555
0.000621503286532009
0.0005802017248963526
0.0005637230238005814
0.001000222322891987
0.001226932985685799
0.001216862073818892
0.001215789704556468
0.001220917869906554
0.0012243849039658
0.001226347325936028
0.001078034232763386
0.00107825197743426
0.001078710667726373
0.001079446549756117
0.001081570035714763
0.001089157066994715
0.001016971460217092
0.0004687160090692459
0.0005221026723744515
0.0005243476848368731
0.0005292121154125334
0.05542840553064717
0.01050145823298573
0.0006755426081714046
0.0006185460117998669
0.0005813337701445641
0.0005627310048078524
0.001017274910429281
0.00122858423265639
0.001215453042393211
0.001213769512214906
0.001218287835773404
0.001221366617993205
0.0012230895715891
0.001072202422822831
0.001072410997527278
0.001072851948873231
0.001073557661468276
0.001075957198439805
0.001083423679386057
0.001001047043303459
0.0004669579677732666
0.0005189284023038812
0.0005211551022582542
0.0005210278388159927
0.08316237762713821
0.01334721933406333
0.0006781062019787224
0.0006149643720332706
0.000581069567645275
0.0005636360128454768
0.001031843758003063
0.001229223554343759
0.001213713422139236
0.001211742815851849
0.001215845946568141
0.001218645261952564
0.001220204010966621
0.001066711525983209
0.001066912571314972
0.001067338831954426
0.00106802619385347
0.001070725985116122
0.001077893518177233
0.0009877947779578788
0.0004653536257330219
0.0005160161237619551
0.0005182098815282378
0.0005201564503625854
0.09877646325179155
0.01339508596964514
0.0006742082736375992
0.0006107718989210615
0.0005795645894941538
0.0005647081770113722
0.001043445564841525
0.001228814681391106
0.001211531480398026
0.001209505693302717
0.001213362344858077
0.001215982332600146
0.001217442566562902
0.001061532782512823
0.001061728423450458
0.001062143616502261
0.001062824270843297
0.001065833134345169
0.001072625074894406
0.0009758857954022671
0.0004638759311282295
0.000513314842458394
0.0005154106773889271
0.0005254901324918705
0.1102361871258679
0.01303504258183384
0.0006678937641602985
0.0006062842046549883
0.0005771232293276103
0.0005655634038258887
0.001052300706738408
0.001227478857760945
0.001208921088648275
0.001206988341903122
0.001210721732027518
0.00121323569043236
0.001214641030519388
0.001056642961112836
0.001056833893146454
0.001057242243625196
0.001057925688074964
0.001061240946444183
0.001067620186958426
0.0009648176875551557
0.0004625008781533537
0.0005107948008417887
0.0005126615372532022
0.0005491444423227554
0.115212110097887
0.01259210252842644
0.0006614769569539818
0.0006018341119655397
0.0005741594394237743
0.0005656661908970517
0.001058725091499526
0.00122540089214711
0.001205950117936011
0.00120419278907916
0.001207883709194348
0.001210342593712572
0.001211723092011119
0.00105202099882585
0.00105220727042518
0.001052612306901551
0.001053305661405115
0.001056916856430809
0.001062868181412696
0.00095455596541123
0.0004612099621343005
0.0005084407183921067
0.0005098721533955416
0.0005953403620412083
0.1189452076756084
0.01217570702121192
0.0006558607045282481
0.0005976584878852194
0.0005710377113647597
0.0005646008954456285
0.001063125532454512
0.001222774912054985
0.0012027070991366
0.001201158605027129
0.001204854442749262
0.001207292954727481
0.001208670766681008
0.00104764707540967
0.001047828843827709
0.001048233177523697
0.001048941745925149
0.001052833422591331
0.001058357161551091
0.0009450919947967285
0.0004599882653956284
0.0005062397162451234
0.0005072445785734053
0.0006685207687733136
0.1219633549806431
0.01189726184485363
0.0006508467018830578
0.0005938716365157527
0.000567957269762571
0.0005646073665502085
0.001065931292345979
0.001219774640788011
0.001199279074039244
0.00119794248979199
0.001201667548577432
0.001204105952462801
0.001205495678264617
0.001043502322957485
0.001043680113401241
0.001044085488126388
0.001044813040927085
0.00104896630379922
0.001054074283751181
0.0009364022297882614
0.0004588209793810394
0.0005041759887010536
0.0005048369279411606
0.0007702063924274979
0.1245774412157489
0.01173423184050455
0.0006463542245717574
0.0005903485573116458
0.0005650091221521861
0.0005649993927823437
0.001067512415390143
0.001216538632491468
0.001195739087861053
0.00119460272736643
0.00119836730183141
0.001200814645572322
0.001202223347613423
0.001039569375918306
0.001039743546575204
0.001040151835999053
0.001040900435328954
0.00104529398340179
0.001050005500472054
0.0009284473865553006
0.0004577057903810044
0.0005022337426797889
0.0005026678420562999
0.0009537982224935973
0.1269806806682607
0.01166106102648303
0.0006423904944664584
0.0005871213337830026
0.0005622432045234896
0.000565448053400522
0.001068179549524429
0.001213164827575068
0.001192144727268585
0.001191191382250778
0.001194997444114857
0.001197455848644778
0.001198884908983737
0.00103583072885994
0.001036005357854075
0.00103641572978079
0.001037186934532968
0.001041799107446295
0.001046138860435743
0.0009211667194146844
0.0004566367719231277
0.0005003996511089837
0.000500688755262562
0.001352989623175566
0.1292977150630708
0.01166597093708435
0.0006389106848577479
0.000584189615805748
0.0005596801974666318
0.0005658549235461039
0.001068182238915746
0.00120971734209254
0.001188541102497088
0.001187751534850016
0.00119159587708205
0.001194063969958566
0.001195511551300751
0.001032272128380079
0.001032450259534999
0.001032861823928193
0.001033657287145911
0.00103846718537323
0.001042464185354726
0.0009145089285568215
0.0004556066645888371
0.0004986616045004852
0.0004988799673539464
0.001896237909267376
0.1318579659474596
0.01174552264823629
0.0006358220867846477
0.0005815008908341738
0.0005572999293107576
0.0005661489368382681
0.001067695734057532
0.001206240663443639
0.0011849636076147
0.00118431649774489
0.00118819315055558
0.001190668176888857
0.001192131186864577
0.00102888061539827
0.001029062642519962
0.001029476205351068
0.00103029595311102
0.00103528342360933
0.001038967047246619
0.0009084107448747042
0.0004546057164929914
0.0004969987334564508
0.0004972071624400257
0.00252315623226449
0.134543107496486
0.01189840636118163
0.0006330760419453336
0.0005790234031948693
0.0005550728141669508
0.0005667049068808063
0.001066821485032364
0.001202771306937397
0.001181437422466219
0.001180910594697023
0.001184812964579998
0.001187291790086353
0.00118876715712671
0.001025644370094219
0.001025829517181901
0.001026245490100021
0.001027088537720161
0.001032234111495337
0.00103563191246769
0.0009028175317879359
0.0004536353401155614
0.0004953931679079779
0.0004956353632664972
0.003196240910127369
0.13738356911814
0.01212013482224645
0.0006306392542050856
0.0005767322300339595
0.0005529716902698478
0.000567133119530516
0.001065645388631689
0.001199344660068077
0.001177979191900004
0.001177551169835036
0.001181472822969476
0.001183953039059264
0.001185437606229475
0.001022551988087086
0.001022739538875637
0.001023158266615351
0.001024023811388329
0.001029310109639494
0.001032448592340234
0.0008976847091667279
0.0004526951034500261
0.0004938620422276208
0.0004941636026472925
0.003893751180737676
0.1401578016299469
0.01240488945344959
0.0006284629031002201
0.0005745921475278898
0.0005509589148190565
0.000567298158785812
0.001064238360257635
0.00119598416789666
0.001174597487523895
0.001174250096582104
0.001178185174419442
0.001180664917215923
0.001182155872892993
0.00101959187341171
0.001019781353741184
0.001020203264509484
0.00102109065361914
0.001026503174870392
0.001029408139622923
0.0008929677286592639
0.000451779461759459
0.0004924236921647353
0.0004927940448142403
0.004602566309356013
0.1430720366232938
0.012746079536175
0.0006264884070985584
0.0005725283280232388
0.0005489729031755044
0.0005672038024511532
0.001062664373750476
0.00119269653643598
0.001171294288735303
0.001171015016070604
0.001174957616693292
0.001177438664994209
0.001178929679152541
0.001016753520043377
0.001016944198684759
0.001017369096068681
0.001018276426707524
0.001023801367380841
0.001026495975092336
0.0008886020858142941
0.0004508837544415879
0.0004910410344345257
0.000491486807803686
0.005314655929078069
0.1461744380714075
0.01313876910694117
0.0006246748778099899
0.0005705317675133221
0.0005470460869727366
0.0005669326519879685
0.001060987205368792
0.001189476579949215
0.001168072240839792
0.001167851399018333
0.001171796414530154
0.001174280137855116
0.001175764197097394
0.001014026437302229
0.001014217411486694
0.001014644844884274
0.001015569721945012
0.001021193468431378
0.001023691697399855
0.0008845227810163994
0.0004500154827754989
0.0004896962861584377
0.0004902207033078085
0.006021504597168107
0.149469189116052
0.01358310222643151
0.0006230023252248781
0.0005686113796485948
0.000545205707431672
0.0005665631821607076
0.001059251448609627
0.001186326706016264
0.001164935766518632
0.001164762995184041
0.001168707190282086
0.001171192936174625
0.00117266545443709
0.001011405961174611
0.001011597068869088
0.001012027093808273
0.001012968582355062
0.001018680961378164
0.001021016845685238
0.0008806987286834499
0.0004491719853381331
0.00048842892446603
0.000489025119962043
0.006714734665374696
0.1528796431209311
0.0140817863505732
0.0006214432327326208
0.000566725818489488
0.0005434016971706298
0.0005661175800106414
0.001057455253121637
0.001183260979848551
0.001161880496079609
0.00116174696870769
0.001165689167813387
0.00116817532640336
0.0011696348129195
0.001008868176956
0.001009060412127103
0.001009493368640697
0.001010451274032819
0.001016245385140782
0.001018370317929275
0.0008771502644759691
0.0004483347900103133
0.0004872259058619525
0.0004878895493855538
0.007392027462127445
0.156695901551088
0.01464111977078437
0.0006199901831636375
0.0005649034292868721
0.0005416716699417644
0.0005656290442601085
0.0010556362985748
0.001180291148244483
0.001158912190816636
0.001158816562125044
0.001162754487795434
0.001165241136185735
0.001166687451736083
0.001006466269502121
0.001006660604348266
0.001007091600479379
0.001008063739409417
0.00101392531822402
0.001015360803624481
0.0008736398003167217
0.0004475075195719194
0.000486018993542409
0.0004867667075649827
0.008054581139221029
0.1608099909297007
0.01526068956627951
0.0006186786644795185
0.0005632278575186486
0.0005400903241924694
0.0005651128016949458
0.001053753264339352
0.001177371793092551
0.001156005443722766
0.001155937682898519
0.001159870784994193
0.001162347631462294
0.001163787032786489
0.001003969969481354
0.001004182191276739
0.001004606056552083
0.001005599269841898
0.001011536284830152
0.00101304242058109
0.0008706928703308555
0.0004467163312242841
0.0004848311039181134
0.0004856498487788076
0.008703317810526271
0.1651363058868535
0.01593793888795418
0.0006174966462982954
0.0005616410059173424
0.0005385903715606675
0.0005645598361460889
0.001052184434176001
0.001174500316640812
0.001153203395977012
0.001153177862341965
0.00115711792271819
0.001159580789580804
0.001161028075622497
0.001002256899691732
0.001002418436963612
0.00100285774892558
0.001003850057745305
0.001009786596524717
0.001008554396274025
0.0008664683543455807
0.0004459214038743907
0.0004837425446377719
0.0004848376468751596
0.009344513767557131
0.1696987326785122
0.01667126100866136
0.0006163632146852584
0.0005600468036708129
0.0005370928134652745
0.0005639441602589583
0.001049684074955131
0.00117185150194309
0.001150486837355179
0.001150435647678039
0.001154338797974688
0.00115681519787202
0.001158188971019543
0.0009985516284928798
0.000998763881337053
0.0009991917672906845
0.001000203502070263
0.001006254300920006
0.001007926246004909
0.0008656108434201389
0.0004446185991494056
0.0004827471591205661
0.0004833909023944354
0.009982380487583259
0.1751551752397783
0.01743256093287134
0.0006146852235355123
0.0005585715093236712
0.0005357037558814006
0.0005627832044805571
0.001049125387147126
0.001167828526116023
0.001146576962514552
0.001146594099323198
0.001150493049194079
0.001152949583560358
0.001154361295879971
0.000418492997661763
0.0005306503956040613
0.0004325385457633897
0.000533679038660657
0.0005348117986745332
0.0004356322072021604
0.0005364343172564015
0.0005381023633275574
0.0004383024440585915
0.0005401367865943211
0.0005422505342576323
0.0004416856738198966
0.0005447174633525587
0.0005472618001492658
0.0004457918996032604
0.0005501112292943453
0.0005530063508780503
0.0004505148747555849
0.0005561279627791585
0.0005592382213494788
0.0004556472721483955
0.0005624761700966176
0.0005656383341933682
0.0004609191571682374
0.0005688240716295943
0.0005718804353768966
0.0004660568432165585
0.0005752359240799348
0.000459552719804456
0.0002642973172136676
0.0004923799857767138
0.000580010562704584
0.000571397238212258
0.0005849487212142982
0.0005860330344775948
0.0005764824035515719
0.0005878268830358467
0.0005896684952684558
0.0005800418602397596
0.0005919049937721801
0.0005942108830422483
0.0005845073510783117
0.0005968841478007204
0.0005996322858547827
0.0005898714923761355
0.0006026798919768676
0.0006057811717661436
0.0005959937330647021
0.0006091004383346312
0.0006124212292330268
0.0006026217013295089
0.0006158642534658751
0.000619245100252529
0.000609429175136931
0.000622643824085952
0.000625919369282775
0.0006160751234983333
0.0006300749547802569
0.0005329102646362611
0.0005156151392751654
0.0004934555655189691
0.0005718665981848699
0.0005774263601126545
0.0005791449992873616
0.0005800970725148855
0.0005844740974649878
0.0005818661639153248
0.000583742933712085
0.0005881198964204617
0.0005859671333107438
0.0005882719813025656
0.000592658199900723
0.0005908747010977872
0.0005935729299861732
0.0005980267947230283
0.0005964428112086835
0.0005994093421138565
0.0006040571274943077
0.0006025214819639271
0.0006056702134649456
0.0006105462688628223
0.0006089184947866695
0.0006121450188935973
0.0006172280424167868
0.0006153863411722182
0.0006185313578658473
0.0006237837226583567
0.0006234469337410763
0.0005288346781126134
0.0005350812755937992
0.0004880463857950511
0.000560313235026612
0.00056593279873976
0.0005702088145121675
0.0005711259290986406
0.0005754569738712219
0.000572865157815737
0.0005748260517153507
0.0005791174428086776
0.0005770765475063605
0.0005794392047194861
0.0005836597831351542
0.0005819658794625698
0.0005847517448585162
0.0005888885828404312
0.0005871923349874183
0.0005898341804142841
0.0005944718161129831
0.000592604724356071
0.0005954175028647042
0.0006004250098311771
0.0005983548757075555
0.0006013297220155142
0.0006066448071780961
0.0006043529354190261
0.00060729697927292
0.0006128320177100024
0.0006133072412647625
0.0005160992761670751
0.0005285416054257124
0.000487821626617331
0.0005503963631724646
0.0005550969612851144
0.0005626836538591334
0.0005637058330853821
0.0005672352074919217
0.0005654685675650711
0.0005675902777607608
0.0005710075725469798
0.0005700018888882457
0.0005726857195457784
0.0005757525030811114
0.0005743083818445083
0.0005791094011577486
0.000580934378638793
0.0005798462179191846
0.0005816591896831569
0.0005856617963940198
0.0005840477792749493
0.0005862679646389319
0.0005907100550157277
0.0005887353744936431
0.0005913824752820994
0.0005962778713464208
0.0005941685609040067
0.0005968755656218776
0.0006020101372411022
0.0006043325943537293
0.0005096285472955424
0.0005205357631179588
0.0004875641234915745
0.0005424018535270427
0.0005461606545229503
0.0005562900205558048
0.0005575089614368754
0.0005604966581180577
0.000559360552657249
0.0005616975633267537
0.0005645318554627314
0.0005643819527281964
0.0005685302389245515
0.0005697335332312513
0.0005432194958336218
0.0005734842163234777
0.0005685983979304163
0.0005555460847776355
0.0005728910348642213
0.0005787375008048703
0.000575585151746383
0.0005773118094501613
0.0005818472649393533
0.0005792531477935073
0.000581553225684765
0.0005865423258808397
0.0005841566951142775
0.0005866623025028486
0.0005918047464919029
0.0005958541436021988
0.0005055443847905395
0.0005137064361529849
0.0004851069656654681
0.0005362595626973408
0.0005391108756816749
0.000550605726174168
0.000551973435996535
0.000554676947358013
0.0005539540699716001
0.0005566804451015457
0.0005589441954540628
0.0005604421021250085
0.0005608276049230862
0.0005606062325670467
0.000579893535301999
1.5e-06
0.0005839792688365957
1.5e-06
0.0005919189553900406
0.0005850426204311857
0.0005746004590150596
0.0005677921178064672
0.000572865594004222
0.0005684005683496048
0.0005705973193628315
0.0005763595216856572
0.0005732306421448928
0.0005757412455590591
0.0005813446541015603
0.0005868809430479365
0.000502247983118032
0.0005079165724292259
0.0004819189478489249
0.0005312689149957269
0.0005336739413739058
0.0005453871032986144
0.0005467905267138161
0.0005493902061218686
0.0005488534349552281
0.0005516829500010232
0.0005544035369028263
0.0005549559604040839
0.0005614119331417118
0.0005590052687174061
0.000586879756127144
1.50000000000001e-06
1.500000000000001e-06
1.499999999999997e-06
0.0007086837555502636
0.0006482381846575628
0.0005558692293189211
0.0005568537924933268
0.0005645968764629476
0.0005554529180301082
0.0005572928087407902
0.0005640846589408195
0.000560680105670544
0.0005638170542584537
0.000569842721996966
0.0005770481608512118
0.0004984908958666363
0.0005028188828905568
0.0004789630111137402
0.0005268907491025503
0.0005290099699179531
0.0005403910773749337
0.0005416128273157774
0.0005441878662723947
0.0005434493938615283
0.0005458985755500446
0.0005487627251678863
0.0005489823222239739
0.000558316424745799
0.0005549719753245621
0.0005898347044498795
1.499999999999978e-06
1.500000000000003e-06
1.5e-06
0.0007812602982443272
0.0007679859003404517
0.0005289850801847846
0.0005520352564384549
0.0005526558025629821
0.000548247081554038
0.000548886880228059
0.0005509163518323746
0.0005504977314398783
0.0005538072302295054
0.000558211773512609
0.0005684586697485135
0.0004952481469340498
0.0004978643281517526
0.000476228936674006
0.0005230155836602794
0.0005248808897097721
0.0005357192433866203
0.0005367852454442773
0.0005391355393212499
0.0005385594073205281
0.0005408824870780994
0.0005433790836658383
0.000544080838787211
0.0005549075793533957
0.0005530842981629437
0.0005931969952546328
1.500000000000004e-06
1.500000000000009e-06
1.500000000000002e-06
0.000749577399488487
0.0007586799735155501
0.0005485348537342631
0.0005665891680305804
0.0005432204767463857
0.0005627205530192095
0.0005525008790274675
0.0005346153083956407
0.0005517648204428371
0.0005516161262354841
0.000550649705869571
0.0005655179611283057
0.0004952549891211897
0.0004935444108022906
0.0004737375675483954
0.0005195933163053325
0.0005212417038637428
0.0005314247670579511
0.0005323508470529015
0.000534517020224214
0.0005340768131172657
0.0005363365833714299
0.00053860335609351
0.0005393816889236759
0.0005506463954508174
0.0005502346747612662
0.0005969381169312939
1.500000000000009e-06
1.5e-06
1.499999999999996e-06
0.0009033696668387937
0.000934487919708255
0.0006530170952271333
0.0006654707224278149
0.0006645539696739785
0.0006192747048825381
0.0005893784801687866
0.0005799283875106995
0.0005733437863429182
0.0005676974219278665
0.0005612565356715566
0.0005668559438714146
0.0005145268206459958
0.0005044940870356933
0.0004714799506936055
0.0005165367789229356
0.0005180141918923823
0.0005274567644862269
0.000528243187058865
0.000530247419030002
0.000529905204740629
0.0005320293377515802
0.0005341315321352852
0.000534894969577926
0.0005408216213068824
0.0005490709784685392
0.0006033090742405889
1.500000000000009e-06
1.500000000000003e-06
0.008743613511389112
0.0008366892857410109
0.0008766826054813085
0.000667743608402777
0.0006657319346992207
0.0006656984664065065
0.0006223613867743295
0.0005939351238013001
0.0005927127157990329
0.0005789723382236426
0.0005736537807333902
0.0005715201275885432
0.0005649568954396322
0.0005380986328348118
0.0005266943250222164
0.0004694574784263657
0.0005137783456363628
0.000515117999641901
0.0005238042004987679
0.0005244658285530076
0.0005263044034282859
0.0005260922793601582
0.0005283426887951191
0.0005299343685677059
0.0005306456360491838
0.0005178107919314087
0.0005402898873219621
0.0006312642643053204
1.500000000000003e-06
1.5e-06
0.004439176643842024
0.0007958785920977273
0.0008199048367091606
0.0006712509615225068
0.0006633831477236204
0.0006649633730058997
0.0006201242238322893
0.0005941741893187285
0.000594287552577093
0.0005809774351810234
0.000575024830105941
0.0005747434166368288
0.0005630670913406865
0.0005628198057836819
0.0005508379681692353
0.0004676438797860701
0.0005112720549633787
0.0005124943828152243
0.0005204807743258675
0.0005210644343323246
0.0005227203395277673
0.0005227188618119682
0.0005239908393797668
0.0005262026102406201
0.0005226119095487785
0.000858715618644075
0.0006389163577313318
0.07218608175879662
0.2472925639250422
0.2738547597526385
0.01265419957346408
0.0007774121855192919
0.0007834826944266598
0.0006780209572353611
0.0006593946719152815
0.0006616083748476287
0.0006168769265020386
0.000593313326068366
0.0005938479422571013
0.0005813835018178723
0.0005740371243237265
0.0005747462957240264
0.0005631785505601792
0.0005869393183082707
0.0005753977617092679
0.0004660031107422295
0.0005089727250274019
0.0005100999010083967
0.0005174441716407255
0.0005179975749001373
0.0005194954166538368
0.0005196637368435251
0.0005201905248791568
0.0005219851363326995
0.0005201626553451873
0.003033213873622657
0.001161926470035669
0.09180046499403439
0.1767012360745349
0.2098981612042343
0.01348856366406148
0.0007673965211533696
0.0007721490187535545
0.0006768156459001489
0.0006538640477257898
0.0006568922654346059
0.0006129710186813389
0.0005916386799602162
0.0005925980312616907
0.0005804790083459511
0.0005717321733102345
0.0005730214520325349
0.0005642395246774988
0.0006117989291939527
0.0005997037266944695
0.000464489908010951
0.0005068346335405969
0.0005078869341585253
0.0005146434125764517
0.0005151817287190095
0.0005165642440960177
0.0005167957170265592
0.0005173442790720652
0.0005186236651484473
0.000521210920080789
0.009680091013804366
0.006095031486470881
0.1048045720752406
0.134067947968029
0.1520006164537506
0.01319392738318869
0.0007596550249080506
0.0007633767001227493
0.0006712780219943943
0.000647277634863266
0.0006507046890202798
0.0006085985521844881
0.0005891686510669147
0.0005905131469491117
0.0005784477790051171
0.0005686138773508141
0.000570254495362066
0.000565228247362885
0.0006354644924452168
0.0006241325472871723
0.0004630847522349705
0.0005048203963964343
0.0005058150499337279
0.000512035169593369
0.0005125495540198592
0.0005138445382078133
0.0005140424062896249
0.0005153816979743529
0.0005162852861290621
0.00053487726926986
0.0187964925000122
0.01412196134814697
0.1130410990549727
0.1103277011114653
0.1213325309673411
0.01283116954784482
0.0007535392017327365
0.0007564412166810347
0.0006645422823899399
0.000640768383921833
0.0006440033858742516