/*--------------------------------*- C++ -*----------------------------------*\
| =========                 |                                                 |
| \\      /  F ield         | OpenFOAM: The Open Source CFD Toolbox           |
|  \\    /   O peration     | Version:  v1912                                 |
|   \\  /    A nd           | Website:  www.openfoam.com                      |
|    \\/     M anipulation  |                                                 |
\*---------------------------------------------------------------------------*/
FoamFile
{
    version     2.0;
    format      ascii;
    class       volScalarField;
    location    "12600";
    object      omega;
}
// * * * * * * * * * * * * * * * * * * * * * * * * * * * * * * * * * * * * * //

dimensions      [0 0 -1 0 0 0 0];


internalField   nonuniform List<scalar> 
7769
(
5972.740186441805
5973.61536801265
5976.131774115556
5980.138112400942
5986.632770314444
5996.508316354948
6016.111195560336
18409.80578229414
12093.29986404154
12159.23419891317
12241.75751156651
12343.17069893612
12462.07226512737
12594.3450520458
12733.81115259646
12873.44073822165
13002.83979512677
6608.216948462798
6637.665220775832
6671.775344832164
6706.283742003297
6732.665702173527
6750.393428919748
6760.487464013993
3515.227386718185
3515.645873177617
3517.010342508726
3519.169092769937
3522.702261600619
3528.118285214291
3536.833133312807
4965.748829011474
5192.225065012554
5220.057391119242
5255.491269264097
5299.420416872042
5351.255602137217
5409.149762464736
5470.265863582888
5531.424587053841
5588.987248098251
3899.121440364415
3905.410800812806
3930.689701347743
3951.124048323464
3966.586244486006
3976.820927355257
3982.632036556759
2564.339596014499
2564.581067385628
2565.491855021927
2566.919705540585
2569.284267677819
2572.94277319918
2577.292690930918
3409.587711395735
3656.419499741137
3674.919670058033
3699.684759231157
3730.753058754977
3767.714955940318
3809.228546555212
3853.14648412145
3897.090156870368
3940.399086490781
2854.857223866099
2847.838400252594
2870.016071079554
2885.059523744223
2896.294021017281
2903.640082470526
2907.809280308783
2096.005431571866
2096.151524079266
2096.817730010626
2097.860982939931
2099.605378575873
2102.334767943298
2104.352436838579
2730.966217043752
2906.028131246323
2919.502332010037
2938.840872246251
2963.691926146684
2993.633395422111
3027.590230886839
3063.693625736777
3099.810100489474
3137.090387738008
2345.833580499076
2326.666179175885
2347.77130827375
2360.314557417398
2369.484239448468
2375.434329431471
2378.820375902973
1805.895214127961
1805.959786577197
1806.441555773688
1807.203769452759
1808.495978916003
1810.556506069785
1811.125313102181
2289.690084755848
2418.956267506962
2428.884566173158
2444.369848181402
2465.634876468152
2491.373059631422
2520.38361338839
2552.255590426984
2583.988473658332
2617.74117053493
2034.563433036781
2004.28379165918
2024.72789358412
2035.925591207355
2043.814194684233
2048.905640804069
2051.811929926962
1597.588162048619
1597.568263032156
1597.886715264197
1598.400093499323
1599.300302796489
1600.789713615186
1600.45129391064
1971.709570470228
2071.117666010107
2078.178662675599
2090.406060571111
2111.630909302487
2136.578537366748
2158.031468232788
2188.034167584985
2217.339600786076
2248.783212263967
1813.47123329045
1773.950967862932
1793.445450077066
1803.850145656916
1810.82293608545
1815.304556306857
1817.864756672318
1435.845307054216
1435.757954472225
1435.939568778947
1436.229254201388
1436.780099190539
1437.7493284349
1436.889347820557
1731.683003695282
1809.26057104637
1813.618107239233
1822.775234466963
1856.137567928235
1877.488503547045
1894.458547242941
1914.988995296774
1942.935629479509
1972.716525181936
1642.769227614543
1596.771038952621
1614.824508385853
1624.698670609616
1630.899735407505
1634.854287691801
1637.098234486489
1304.938769849273
1304.796628790109
1304.869118381905
1304.965965807967
1305.217849855456
1305.563330250426
1305.094935989192
1544.460407919714
1604.916601443618
1607.171791313164
1612.555765424429
1627.939828929479
4400000
1693.079569316341
1702.24690388014
1730.297908134326
1759.102127986929
1504.959612538646
1455.753173286908
1471.760091607566
1480.938240817404
1486.316354664954
1489.718614257108
1491.634343624421
1196.321931406758
1196.131896489337
1196.115316125254
1196.049344953239
1196.055566839207
1195.724392014164
1196.42033570189
1394.279829596999
1441.293141193141
1441.176870542583
1441.658746501146
1479.323583331281
4400000.000000016
1519.644090897558
1546.406551250432
1565.334383640649
1592.192624500703
1390.545367645028
1341.451719992232
1354.826265973821
1362.791037650888
1367.190984588216
1369.96207306912
1371.499879140891
1104.621145168592
1104.393814608762
1104.306975960442
1104.111679757246
1103.922877258866
1102.95363407916
1105.236018314747
1271.305002276572
1307.878733703819
1306.552143766182
1307.483812362019
1344.617746009193
4400000.000000013
1399.196376018025
1417.872002476008
1441.531648026043
1464.739414421169
1294.612550283282
1247.835251360995
1258.005083674585
1264.030393206355
1267.222870620103
1269.236214946377
1270.312393432568
1026.152722443911
1025.900396092805
1025.763391541324
1025.478161622399
1025.143089751433
1023.652388654488
1027.628340287167
1168.890612346973
1197.563980810151
1195.820303316394
1197.184105831587
1243.285648237982
4400000.000000002
1529.808803684877
1468.856835822774
1392.557201955309
1377.473091859529
1213.763331098503
1169.728638242234
1176.490884119992
1180.305362474885
1182.191939402609
1183.427662870546
1184.051649077741
958.260174286306
957.9942635860989
957.8264932917857
957.4901522074052
957.0533388449819
955.1959269889564
960.7600953201354
1082.325706147153
1104.95556823425
1102.98453518423
1104.952173190298
1153.631211687324
4400000.000000005
1474.842270055319
1398.64571234613
1321.364058134997
1299.146360766634
1141.674245867132
1101.884448794533
1105.930946603585
1107.896883133697
1108.65214109654
1109.226422052585
1109.475211195605
898.9618354030515
898.6907865782457
898.5100068520489
898.1552012148493
897.6559897075068
895.5872949750622
902.5104892909496
1008.210065051058
1026.182284228238
1024.201836248564
1026.343867464685
1092.921572530687
2932.66352212127
1387.872751336399
1304.138655991216
1240.648271952327
1219.952816993188
1074.919417056771
1040.65465903207
1043.067453570793
1043.808578344475
1043.777180523718
1043.876443860589
1043.843433826854
846.7425711383717
846.4741931173347
846.2946321073626
845.9463926970542
845.4141588819842
843.2601301166192
851.2549763716362
944.0109489675459
958.4404590025537
956.7146412332762
959.0531353011796
1494.296932288622
2014.005800972083
1290.584957284977
1214.732388261159
1163.56924562462
1144.273558337649
1013.33354383555
984.4480546134395
986.0863331729684
986.143065381554
985.6776664198603
985.5006151450405
985.3016675452097
800.4211859890382
800.1608911640975
799.9912646684942
799.6634449338932
799.1183745712538
796.9738548919499
805.7528854743858
887.8287927379968
899.5668638637205
898.1709817107291
900.9207518138799
1738.417474341772
1893.592871501804
1200.817606144702
1133.142294742477
1092.030718153635
1073.630955320087
956.7887388620335
932.6630183326238
933.9999859073599
933.7563424068883
933.1168602412241
932.8186631267187
932.5537127342642
759.0560560100188
758.8062441554611
758.6514612798697
758.3522444903971
757.8090953514738
755.7385076836798
765.0449447584244
838.2044484818074
847.8682729851487
846.7464988300464
850.7174120047009
1756.911784676258
1735.757305406918
1116.428383656352
1059.006391297228
1026.139526433324
1008.609489053623
905.0276909251473
884.9250256981944
886.2059463905003
885.8908840938223
885.2423309137611
884.9246248262705
884.6576075104721
721.8934665290941
721.6553646099475
721.518309326696
721.2517101378328
720.720418506776
718.7627423894371
728.3807202853744
794.0195853974656
802.0613844516065
801.1149386993396
805.9144932394996
1660.180261428225
1589.06549284908
1041.030725630078
992.2928730948663
965.8196566593416
949.3192816907073
857.7337991481363
840.9401762951749
842.2736652040921
842.0078921615237
841.4382151853699
841.1551782841224
840.9181096214282
688.3243588665788
688.0974855075935
687.9796731505671
687.7463303737028
687.2330284016982
685.4088531123117
695.1646971543793
754.4075613538442
761.1725905475363
760.3802295649186
763.4104251237766
1555.351129743344
1470.552885422047
974.5942904763275
932.4216943877302
911.0124893559648
895.6384288079181
814.5562415595915
800.4368853619461
801.8530125231051
801.687948745583
801.2332511216387
801.0086685307034
800.8153255384675
657.8485925698322
657.6316772322247
657.5332349997502
657.331682493152
656.8401068179803
655.1574186225896
664.9156957636571
718.6787643667615
724.429475624529
723.7681231734307
727.3270549693073
1453.365877099644
1374.867544894113
916.1053060445753
878.970097776271
861.5191842452485
847.1944469338099
775.1215186865343
763.1457715519939
764.634730925982
764.5804097126875
764.2457376905262
764.0858884928632
763.9401127455986
630.0539374642934
629.8455520282184
629.7656636362038
629.5934691770667
629.1258918214414
627.5844561334844
637.2422442598057
686.2805692938537
691.2202941457423
690.6572782974688
695.5223940418127
1358.281820055997
1291.763250369178
864.4008719295923
831.4621408569066
816.8652811576941
803.432821744232
739.0587938866469
728.8015013309675
730.3361203304959
730.3819193381096
730.1563695065919
730.0569962257194
729.9561905069017
604.5966293757893
604.3954811840921
604.3327166277564
604.1870761896222
603.7446245320945
602.3390195813176
611.8202229047105
656.7572660574295
661.0506364797287
660.5577405470395
667.7423717049728
1272.264442519625
1219.592351560849
818.3813933987325
788.8572298352389
776.3784238541818
763.7731465163697
706.0170646941518
697.1436181261727
698.6919478349394
698.8199900360456
698.6865246017404
698.6380467654642
698.5755548581072
581.1898440564959
580.9946490497764
580.9475377719135
580.8253912070525
580.4081342957791
579.1295460280221
588.3783835541832
629.7323926064031
633.5071581676141
633.098793018075
643.0210047478889
1195.603333670959
1156.875353465839
777.1062488574358
750.309867767582
739.5335712406512
727.7491392254761
675.6776870231678
667.9221714590382
669.4567246777368
669.6487121385637
669.5893178138691
669.5806912469403
669.5481552609336
559.5910994692422
559.4022627354872
559.3681818056552
559.2667612119958
558.8742657194331
557.7123221043888
566.6915544342676
604.8953215692284
608.2353351863362
607.9023744547258
620.8942968201712
1127.667982961512
1102.411667711585
739.9324114281482
715.3485138652881
705.9928724841184
694.9626286534595
647.7533126948506
640.9016777189179
642.4046121930303
642.6442298713614
642.6421924149818
642.6631219499907
642.6522880966212
539.594208291603
539.4117856236097
539.388198192832
539.30524625614
538.9368099285783
537.8811929148845
546.568999836435
581.9938207844386
584.9597949455101
584.6796223880642
600.7188917213991
1065.835681852592
1055.235567560903
706.3279300211368
683.5718918492229
675.3693768055159
664.9915232845042
621.9806623143552
615.8658650208943
617.3285887791142
617.6015234824221
617.6424557299404
617.6843346410488
617.6880522188089
521.0233241738391
520.8464041061347
520.8316654963978
520.7646991935688
520.4191941478177
519.4594871956015
527.847100398844
560.809055125233
563.460475781406
563.2079751798306
581.9589744534589
1011.290363357611
1014.299590192377
675.7459658574734
654.4798991924181
647.1964885845906
637.4171695173903
598.1223722417222
592.6231129925065
594.0411284848337
594.3351410274751
594.4073935127631
594.4634635165044
594.4760509697576
503.7283543050032
503.5557611974097
503.5482625745605
503.4948251410135
503.1706522499827
502.2966006010269
510.3789723313223
541.1434931110743
543.5198170406187
543.2770973452472
564.4018291958066
963.3823912436188
978.5894841630951
647.7302733169395
627.6658035101415
621.1163331366007
611.9343015907129
575.9799585284723
571.0062690064148
572.3742682919825
572.6791713423597
572.7735393656734
572.8389728869863
572.8558963615845
487.5796118991541
487.4103574480919
487.4086788681522
487.3667584549876
487.0624426291175
486.2646645293931
494.0409685981213
522.838070852384
524.9750786729908
524.7308879173402
547.9239908053352
921.2672861258262
947.3011085240764
621.9762644771588
602.893643200605
596.9672059438965
588.3672184967031
555.3844423383987
550.8645846957553
552.1765481502167
552.4847058365431
552.5940769174714
552.6655009901231
552.6832458449512
472.4633181110055
472.2966333282046
472.2996006523622
472.2675725518575
471.9820856806518
471.2525427561852
478.7255549398265
505.7667445524949
507.7311357870616
507.4750707637791
532.4472185947482
884.1879080645134
919.7551655048164
598.2348235632152
579.9688489588874
574.6017020853749
566.5627937203675
536.1857566837716
532.0586702866125
533.3105192363588
533.6172337843943
533.7359295148389
533.8119644783966
533.8266679093997
458.2811233233753
458.116265682548
458.1226897344994
458.0987712296204
457.8306465909127
457.1616842867822
464.3389767784884
489.7910892599861
491.6327316865552
491.3735446762136
517.8823637745644
851.4499410439233
895.4261462564143
576.2788096976515
558.7114666852833
553.8785120773122
546.3763729345732
518.2537128995508
514.462301470862
515.6555455532412
515.9577129837968
516.0814038232393
516.1607928630988
516.1692980756754
444.9450746936355
444.7813334717711
444.7901292454829
444.7726136765045
444.5198568402805
443.9044670876045
450.794370690035
474.7789852490346
476.4720517324211
476.2405395630119
504.1077425319771
822.3777492416224
873.9928879523673
555.9419077950054
539.013834596066
534.6751108168811
527.6428242686844
501.4683054990819
497.9644384677972
499.1032734366447
499.3979281471978
499.5236486674723
499.6047485028102
499.6054494412327
432.3859954771132
432.222971207737
432.2333759645593
432.2212501048123
431.9824313792738
431.4152652159158
438.0270228115517
460.6691315408622
462.1975847470227
461.9954655496318
491.04086773831
796.4908833420214
855.1435162456318
537.0829347727242
520.7109715481262
516.7497666463023
510.0892799382279
485.7231424259876
482.4782513333739
483.5621086266908
483.8469737876634
483.9730070575109
484.0541786865347
484.0469254486338
420.5110158658457
420.3487226924813
420.3601954551328
420.3528578854864
420.1273883656197
419.6039863444485
425.951819567763
447.4177157377344
448.8529490847013
448.6413842154832
478.6574908494715
773.4464845978623
838.4452061665395
519.5135070397156
503.5793652234934
499.8890807703687
493.5731774587482
470.9011704760665
467.8966490962291
468.9235271084956
469.1988685231059
469.3235454619236
469.4039613584188
469.3891528898379
409.3729493259361
409.2113946528847
409.2218321490757
409.2179647447432
409.0030015649124
408.5170483374135
414.6149590769705
434.9124084914055
436.3008227964542
436.0772721202341
466.9017842125872
752.8171319130226
823.5338189253868
503.0814366670429
487.5426097797529
484.1365630944451
478.1665104121024
457.0393927287879
454.2367994472661
455.2124690576825
455.475803122547
455.5984993868611
455.6742835958004
455.6544960343536
398.4417499368574
398.2854082359653
398.2931996995289
398.2945806003669
398.0937335962749
397.6490372285459
403.5026181373433
423.0513201554099
424.3332351554367
424.1255357126578
455.6915067104695
734.1595465972408
810.131273336091
487.6960635461277
472.5491391307938
469.4795198801332
463.8026384351253
443.5714340417337
440.9472975190529
441.8880821705303
442.1452738990951
442.2684215692515
442.3386077777363
442.3179617921769
389.7237148181865
389.5497833066183
389.5625189088721
389.5611479781386
389.3518698810423
388.9111716310605
394.5607820270401
411.8585254727603
413.0129229056907
412.8310780976881
445.012959881413
717.1217257688571
798.0049716994921
473.2731829456526
458.4135484919688
455.6316386159112
450.2225438621605
432.6361430169853
430.1431903442028
431.0184792749508
431.2502774935052
431.3606028261763
431.4345745107422
431.3886803819217
374.5534341499812
374.3934597114993
374.4019193663183
374.4059756111352
374.2282414614837
373.8598194979098
379.1647743391767
401.8315676556136
402.9187847814099
402.7202246449925
435.1016022711914
699.0244280565709
786.9423120561918
460.3086036024993
445.6068272983206
442.9882946555288
437.8588634576121
414.2152233832051
411.9771846221449
412.8028585744989
413.0349721409238
413.1423999404234
413.2094171815867
413.1703397746948
7355.103085875457
7115.975741042256
12096.63961493644
7117.608952276008
7138.155288249438
12129.99478880217
7156.28420358754
7181.161347672693
12203.11288681912
7204.891028135644
7235.224940416706
12294.62948538586
7264.878865205805
7300.453036279893
12404.60670419249
7335.429755450539
7375.188075035721
12530.28496840754
7414.063850926351
7456.254048602405
12666.42838286226
7497.018973295304
7539.566226419327
12806.31698284245
7580.054223685142
7620.956774751688
12943.00813745802
7657.276025459099
7800.840635450902
20635.54848243973
3965.870151985916
4239.420374882173
5189.067655177053
4243.937818293414
4255.310116452929
5206.662738935061
4266.137160993738
4280.740556616262
5237.956359560015
4295.025660418519
4313.017340851009
5277.473158802125
4331.020750305784
4352.303587096035
5325.341603044225
4373.647980332275
4397.576099553251
5380.337677827778
4421.371426650453
4446.842031855157
5440.07802946414
4471.796242579527
4497.513413940574
5501.490543279357
4522.257304902902
4546.98028222413
5561.454781715511
4570.770882403061
4271.162040931344
5314.958208377362
3026.651375794408
3228.109874505697
3651.114521869742
3234.227041077676
3241.849677987678
3665.685645665621
3249.95152372886
3260.828218132861
3687.411069519634
3271.701874780444
3285.311485454636
3715.168073617562
3299.236653642898
3315.575479306399
3749.154131593357
3332.212127191958
3350.70924044967
3788.479610490884
3369.396283287503
3389.193251745945
3831.373214732928
3408.811896279552
3428.840285566188
3875.525036976446
3448.252930145883
3467.465970618824
3918.588973211404
3488.090827573763
3289.916682474565
3690.742378266104
2490.74460486313
2633.67965515899
2899.764118548297
2640.051842636129
2645.481508735058
2912.453880023008
2651.638268244772
2660.319173231571
2929.20946580805
2668.94970770325
2680.066111279424
2951.098863735423
2691.521745185184
2705.477902625503
2978.443543765711
2719.287636336725
2734.648384833244
3010.467984062328
2750.682455258802
2767.524536000815
3045.702787837638
2784.291502485219
2801.359661269415
3082.039912895251
2817.900616622548
2834.140027885082
3117.350325517805
2853.207596183434
2730.99824606752
2982.082980794119
2118.868555096248
2225.790536846866
2412.758195799361
2231.786143157826
2235.556622996431
2423.491983369497
2240.235423807127
2247.088777598633
2436.617304010414
2254.066559607208
2263.438297580971
2454.480044543776
2271.826914349216
2287.486871420708
2477.093505374144
2298.56999713489
2311.004049668381
2505.146287636804
2325.728685926477
2340.929312606017
2536.34152271829
2356.131947731632
2371.525916994473
2568.371691612795
2386.444228827574
2400.860764958381
2599.201746585082
2418.902839646139
2343.357242865651
2522.034931230233
1843.768304560539
1926.543415670928
2065.551431635676
1931.590142046673
1934.048173802551
2074.17630325025
1937.360800010431
1942.488010437804
2084.179321056808
1947.85521523211
1956.270578831851
2098.365737108346
1933.669099611448
1981.419336101201
2096.433735130486
1969.59066245328
1998.765933196793
2144.096609484401
2011.844006142534
2027.363450546358
2173.125116292627
2042.214651504651
2056.793507224342
2202.921488763262
2070.87097988193
2084.203109222011
2231.11218471579
2101.40818709158
2055.806724765939
2190.20700331099
1632.592930648354
1697.448768057218
1804.846243350558
1701.097095602386
1702.462713416615
1811.069497227752
1704.435196235456
1708.17999731621
1817.740180789677
1712.527685606999
1707.719947931489
1813.984031603004
1737.61320012676
4400000
1860.902023315945
4400000
1795.668106311771
1911.404184503555
1794.584506108551
1789.685980580201
1900.476821502006
1801.390441632195
1816.273510642146
1929.167741660425
1830.120673229648
1842.881771680927
1955.858043377357
1859.364988751204
1833.499701140094
1938.284945785108
1465.380514469418
1516.56649209036
1601.951280659221
1518.747895039767
1519.179808598798
1605.787275463282
1519.790422406371
1521.641223525985
1610.050005319191
1522.272144474033
1530.701115948099
1608.559098713504
1548.405421865483
4400000
4400000
4399999.999999999
1854.286707662396
1803.401338184811
1616.926525365937
1614.651348945243
1699.428141040464
1616.694100103223
1628.101930739948
1716.111718750952
1642.010033299707
1654.650152642263
1742.974926391332
1670.378919859077
1657.061237152635
1740.404576663925
1329.78756550847
1370.371768561746
1439.728610823591
1371.257971213397
1370.892286140341
1441.204226557277
1370.357439491317
1370.642301180453
1441.962482047156
1371.188980477222
1385.729646552188
1443.752573463279
1415.482709246993
4400000
4400000
4400000
1849.187281431604
1887.975689914984
1490.154574893844
1497.413398598552
1548.512503654192
1495.849727489986
1491.799961748754
1552.953422218289
1500.86521097526
1510.904172316315
1577.258624580213
1524.211187024874
1516.432091426168
1582.472955205578
1217.784131525943
1250.151215896175
1307.39525661599
1250.17173758115
1249.480835125536
1307.230796615904
1248.579163206665
1248.403087045853
1306.537478171962
1249.850056580766
1265.471527180712
1315.894956874195
1290.123205317816
4400000
4400000
4400000.000000009
1701.101231207216
1755.344834339995
1428.735725700914
1440.5556344132
1437.528009866007
1421.61838352781
1408.049467754613
1432.119903747277
1409.641309578531
1410.929165759853
1452.237937663901
1416.992424087865
1406.209102685609
1457.414629056448
1123.802730775004
1149.802657320239
1197.76402775698
1149.282939506782
1148.456736268688
1196.718814005937
1147.379603729523
1147.150548647402
1195.538268182926
1149.02251213601
1163.385861279477
1207.639790212781
1195.371768676883
4400000
4400000
4400000.000000012
1801.765044684741
1931.148932516721
1509.855495868375
1514.135910887608
1545.17842233026
1443.18329596851
1389.875222504508
1418.423927445426
1360.261908674296
1344.773405005066
1379.990926401138
1338.679097778801
1316.727990342919
1360.218736884795
1043.831204587764
1064.862016098963
1105.59845859603
1064.007095853918
1063.133995309109
1104.029766928275
1061.999391678827
1061.717536818576
1102.65859657109
1063.949315851762
1073.125550070208
1117.743154490759
1121.102325359836
4400000
4400000
4531.714833260727
1582.512628047091
1703.805399460123
1437.78279737795
1410.90217296478
1462.530177254515
1351.252019083592
1306.33707979059
1349.433939794162
1280.878237526065
1267.148947888462
1306.461100926181
1259.20776243205
1231.221191577431
1273.555007580829
974.9547153500675
992.0844207631376
1027.097092084655
991.0622970263646
990.2225895897874
1025.269694263088
989.1835213031222
989.1647327456195
1023.93090118296
991.7927868833715
998.2503117158313
1033.908787300639
1067.405051462755
4400000
4400000
2104.412129828592
1453.878881404965
1517.624826035517
1337.211412082749
1309.820082179288
1359.501637039962
1258.380638045413
1222.040741860792
1263.538654741287
1201.456196059897
1190.368145457114
1228.319056418182
1181.455343334746
1150.161093355081
1189.78476328657
914.9781693488796
929.0627830247887
959.4672479235988
928.0051040764162
927.2594723237908
957.6235898594908
926.4475263651746
926.7901460906966
956.8699066476969
928.6999740932126
930.9715025285545
958.6953903347771
1654.380266214207
4701.376909057454
7146.25253229027
1964.456931780502
1326.085555977368
1387.447088336999
1245.284545593203
1216.95741057002
1262.353433304108
1173.003529070824
1143.658931891423
1182.019367215082
1127.085599312603
1118.091198702074
1153.612312106531
1108.191382933903
1075.777521479054
1111.947204336483
862.2402188609479
873.9424697214546
900.6048092241118
872.9031010276979
872.2700909765279
898.8680759104946
871.667557983348
872.1947812079331
898.660778216673
875.0556217403474
906.9861152950982
914.3012553582018
1765.932395636543
2528.713670861013
3268.611298451372
1814.320506046254
1217.025189332453
1269.376393343641
1157.676477677335
1131.727043534983
1173.451806735826
1095.164262513504
1071.57400137779
1106.82823650416
1058.402007680372
1050.997481742633
1083.8994027211
1040.337714515678
1008.444695552799
1041.110040563008
815.4623632974054
825.2887768262785
848.8750873402025
824.2881197534832
823.7613232790783
847.2812216632249
823.2687534121163
823.5005793945732
847.1877879854763
828.1295669139909
901.9364117554928
902.8255893017192
1717.509077756373
1868.202556519144
2120.447274754201
1663.973100925172
1125.10902160741
1169.187372403849
1077.546588460809
1054.737449264258
1092.183045904711
1024.779553819769
1005.679467559507
1037.876060515525
995.3162672771584
989.1661208265348
1019.447830363897
978.2009194759385
947.8837373655001
977.2458254954565
773.6637306866335
781.9956323030358
803.0210895464295
781.0456202056786
780.616656457333
801.5687842301335
780.182797809365
779.9387108597924
801.0938392168546
783.7491358096986
901.178710304912
902.1529451339992
1607.664661759129
1555.384785330126
1690.156006899892
1524.958491701547
1047.026226616616
1084.562815588851
1006.672589045024
986.3561842586645
1019.505570154727
961.5373207487345
945.9172114141454
975.0744093976867
937.7634561717178
932.6291253804965
960.2532660105202
921.7514718610447
893.5554587223763
919.9021145679889
736.0733268279689
743.2063161695667
762.0750055951048
742.3149895905466
741.9795990652678
760.7733541348787
741.5951496976093
741.0585087385136
759.9478713884232
744.6986105705471
894.7941457207718
898.6881159349725
1503.770177664402
1363.069720070173
1449.245445240662
1421.017374260603
979.5439587588832
1012.022612630001
944.3914217814086
925.8092997078378
955.1361938471597
904.9172269575743
892.0669604777127
918.2908871514842
885.6348663357443
881.304193434361
906.3368975622423
870.7535988684209
844.8029980795791
868.4640622692681
702.0741066862527
708.2401298069027
725.2735999165292
707.4077542897066
707.1553468543593
724.1204096036042
706.8023323521687
706.1823744239883
723.1541509871849
710.847749598575
883.6244648841667
889.6475196420747
1404.806237065401
1229.045239076391
1290.977771642482
1331.907026894922
920.7753942490341
949.14315042019
889.4457140083516
872.3663837109102
898.2397749781001
854.5378365141303
843.8002654329509
867.2757117158852
838.6267421846684
834.8512186507184
857.4957264255838
824.7322665888391
800.9361963853512
822.2548181419006
671.1681808253647
676.5509502747966
692.0083626315919
675.7760581158273
675.5912699466179
690.987777128639
675.2523109479673
674.7239202263445
690.0535939624197
681.2038453309846
867.8413654740827
876.2368666192955
1314.117979536832
1126.683383450937
1174.805171344581
1254.446770637694
869.061965462019
894.1056125168706
840.7293727929956
824.9785592983271
847.9696607833004
809.6038383897946
800.4237367616989
821.5497870453954
796.1367589180777
792.7217318706138
813.2732165093216
783.0995105010248
761.3125756334194
780.5985184345121
642.9385747868799
647.6812511370105
661.7826597884062
646.968472048735
646.8435868595734
660.8830044170398
646.5172595241801
646.2235118677859
660.124230341927
655.0509525060233
848.9490418173915
858.661745925711
1232.815045415637
1044.792514015163
1083.633892856641
1187.166916699387
823.1625062425534
845.4507135744353
797.1921163289949
782.5280286284298
803.1787326502904
769.107078543048
761.145888372268
780.3061317202284
757.5241920784164
754.3989136637922
773.1060493477452
745.3188103140652
725.3851461122082
742.8967413768545
617.0443523763104
621.2489603308002
634.1765363155735
620.6020805990664
620.5375796562842
633.4029109296156
620.232304649852
620.2709847779271
632.9518812943473
631.6203595241467
828.3567515833579
838.7751308377589
1160.61632504397
977.4608673459675
1009.600656039344
1128.698306794043
782.1121087995112
802.0884278059982
758.04263540109
744.2862497441103
762.9142160476126
732.4193161823492
725.469835212133
742.8781649626694
722.3746576664131
719.5140469355933
736.5493003264057
710.971483505576
692.7011579724192
708.6539035784438
593.2045218485937
596.9474818840994
608.8435650107233
596.3589483594827
596.3434469707446
608.1909351762314
596.0546637989038
596.4381574212752
608.1092933623933
610.6091448493617
806.9122099401905
817.6902806603617
1095.883994146401
920.9347652814635
948.0610319158949
1077.987213419827
745.2045465924754
763.2000427930735
722.7246377299834
709.7439514440773
726.5981078021239
699.1135870496036
693.0367574481317
708.8785231093408
690.3495891546887
687.7017103434681
703.2556180837283
679.6549431763208
662.8439429402537
677.4413474725154
571.1874413005246
574.5395347931152
585.5163585282925
573.9978969724605
574.0150220119987
584.9583457133244
573.7347613588994
574.4344615384938
585.222980636303
591.1766539015208
785.0937242685869
796.0068546387696
1037.69149291107
872.5340124294436
895.8882914198362
1034.047637751733
711.8246663441629
728.130102181064
690.6936430841739
678.3621384233911
693.7071463249357
668.7328346853791
663.3855669528813
677.9035570854074
661.0119797218024
658.5177690440439
672.8191743541884
650.9367511858179
635.4285192057441
648.8562531528265
550.7855571071843
553.803853743749
563.9707518654475
553.3020261923972
553.336032908176
563.4808856782548
553.0577141094581
554.0251410353897
564.0456024588406
573.0386374455986
763.3815776252316
774.1929368764908
986.5597739929561
830.34016227685
850.7862808858716
995.823743369154
681.4390192112704
696.2997711785828
661.4405627906392
649.623787765371
663.701229760112
640.8223193919252
636.0504034113872
649.4661973542424
633.923745754123
631.5598956438257
644.7962453227905
624.441821617199
610.142861349275
622.5425065039428
531.8181232655534
534.5439999318362
543.9919227681077
534.0733474244845
534.1147103379986
543.5479381669866
533.8326612955531
535.0165429146998
544.3535470400858
556.030286990623
742.1959880052922
752.7013847561474
941.6362190549833
793.0929348896284
811.1940222058107
962.402754058904
653.6434353576695
667.2437982637791
634.5875103569866
623.177105585789
636.1441735588677