/*--------------------------------*- C++ -*----------------------------------*\
| =========                 |                                                 |
| \\      /  F ield         | OpenFOAM: The Open Source CFD Toolbox           |
|  \\    /   O peration     | Version:  v1912                                 |
|   \\  /    A nd           | Website:  www.openfoam.com                      |
|    \\/     M anipulation  |                                                 |
\*---------------------------------------------------------------------------*/
FoamFile
{
    version     2.0;
    format      ascii;
    class       volScalarField;
    location    "12600";
    object      p;
}
// * * * * * * * * * * * * * * * * * * * * * * * * * * * * * * * * * * * * * //

dimensions      [1 -1 -2 0 0 0 0];


internalField   nonuniform List<scalar> 
7769
(
76439.19708985162
76432.68310453376
76416.31231999416
76389.73146418536
76346.58866168563
76280.7164928202
76187.04789534492
76077.47024198048
75895.24922418245
75661.06327392977
75360.26227332673
74987.03152990347
74545.60828028736
74050.55142590037
73525.0253922939
72996.3146530806
72488.70493918523
71920.92059348422
71517.01386917882
71185.81760016014
70920.06084817907
70720.8160531382
70590.23911158339
70516.88135610957
76464.16069283096
76459.11615009118
76446.84893631417
76428.19357290067
76396.13035427085
76344.97187541018
76275.98156422193
76156.89454785646
76000.263630346
75783.44314498181
75489.80122671873
75109.13673075091
74643.18172874468
74110.0000964615
73541.08325444591
72972.16482423566
72431.98720141144
71787.1556306572
71368.17664647108
71036.29616395805
70777.69406031976
70586.68586948242
70467.60628686314
70400.05244286847
76486.60717209462
76485.21765410274
76480.50746277551
76472.91077544038
76457.61966602282
76430.41567660302
76394.69293624177
76283.36194979367
76168.04581620902
75987.28741796647
75716.35464728721
75327.47028020635
74808.3986497916
74188.6720954339
73523.23990342281
72869.93293747862
72267.68640717967
71540.17251098255
71114.98463179159
70782.35798306645
70531.22287253008
70346.60548399662
70232.69324840159
70165.98475606889
76507.12485750261
76511.87057372353
76518.05552049557
76525.94714873313
76534.97276504457
76542.05060049462
76550.29737832989
76473.2756118746
76421.94343130432
76312.79192815931
76104.79527016239
75728.9954481139
75100.42166852864
74295.24663750174
73438.22347844737
72638.32180445756
71943.60811147843
71103.1632437654
70685.27744915897
70365.48329615634
70134.60215540422
69970.79265737602
69872.28111528553
69815.38258547198
76522.00339685909
76533.6117436413
76551.20669623978
76578.607597241
76616.19774952393
76663.26339801497
76722.69847968765
76706.80540927578
76745.00706283316
76759.99975851842
76702.03061538095
76465.76295077015
75628.57765321963
74375.08880759997
73167.91532891779
72157.01738328871
71357.54054120762
70397.27020668736
70029.88460217704
69761.13838836148
69582.01891246995
69464.51795908911
69396.0840803201
69359.69175911479
76531.08386774562
76547.20647391588
76572.96140643701
76617.30558931711
76679.96666743548
76764.79637808044
76884.0098417955
76938.5763145471
77095.63735609299
77290.08562043424
77508.96145995345
77605.26795898184
76881.55138600177
74166.9070238144
72421.67140427502
71188.50716468248
70337.37268196121
69328.17605779575
69107.34847368847
68959.26544615538
68883.15785404583
68845.6753906291
68827.67937817195
68825.52207970746
76525.23646843439
76544.23379856411
76574.03260088453
76631.03795559086
76711.24963982834
76825.85411835593
76991.00357725931
77114.06705790167
77387.55148487135
77762.43438801884
78292.33760322121
76164.31609596564
80615.7631311662
72696.40877959612
70612.67205049023
69298.60430334604
68622.81674269889
67833.20767103502
67891.03978063411
67978.4754106123
68080.25651471302
68175.85724830064
68240.69085710459
68291.7665197092
76487.85861665818
76511.22836125027
76544.98485331614
76610.34308134802
76698.52027856071
76829.12198852585
77010.09302984948
77183.50936173704
77526.46639334767
78106.29794999702
79359.1781961192
80531.72278838629
84373.80023846529
66402.96888479748
65755.40392940337
65725.51118674145
65938.38888679811
65916.32229079644
66489.32991632362
66950.01596189926
67306.78170636704
67559.18578612618
67714.79148215061
67819.45983518309
76419.87305786062
76443.64487558069
76478.07527847108
76544.64042499062
76631.14654051508
76761.13967569949
76926.14291302448
77118.97661342732
77435.53529676165
77848.67715502557
78226.03031469381
78155.03764095066
56229.81068453002
51201.37287321252
56753.95242102545
60266.02053431442
62550.90895090411
64074.26861009683
65301.02431161247
66145.26621663778
66729.77510233935
67120.75101741889
67356.52260814939
67509.2800124887
76322.05806130053
76343.48291170236
76374.18560170532
76432.78903325938
76507.65789349354
76619.09080340285
76744.51854742953
76927.00154916795
77143.69325950711
77391.69910221973
77865.45228979643
78066.02916767144
53974.43207536174
42915.23155511598
50352.70197139989
56020.72601747237
60050.80669929691
63171.84477963876
64716.20944140142
65762.82167824623
66457.11379880471
66916.06954866574
67187.78306134378
67355.24741932904
76196.3583378865
76213.92895579468
76238.02194448053
76282.93925640157
76339.39730956378
76420.22519418869
76502.07646370593
76659.57171787666
76809.71773228819
76991.24511362283
77347.68656000073
77514.87350368976
58428.24834642775
59087.38623484749
59835.42619851612
60026.35734697806
61612.01959732894
64213.73582243428
65251.55631838759
66087.6135882051
66651.94526668749
67047.26984778501
67276.36634470677
67413.0421658393
76047.91482710195
76060.7212719066
76076.85162939195
76106.49588368765
76142.47541245449
76190.21414388975
76231.43545533392
76357.17053757026
76443.48211858256
76517.41493253867
76718.41926864118
76464.72284222001
51731.78042620661
62687.90284515079
64397.69042769643
64682.72404902859
64984.03812674634
66183.62365940976
66520.94258172436
66969.79513229604
67304.65448024553
67568.40411659246
67731.23766255331
67834.44795400319
75883.5913871365
75891.16335706029
75899.48574660532
75914.73441840208
75931.60394180991
75950.93110892536
75957.8706275287
76047.61913771178
76065.66014440307
76026.74399596214
75821.22785133088
74349.44287256965
67641.71531197458
67852.59780485778
67345.20732700171
67252.39397619681
67230.57009617226
67763.56306545694
67826.80086103934
67976.1482037137
68126.38304438411
68254.17041309236
68337.16678816031
68391.16701062518
75710.24740628253
75712.87795157307
75714.54761417447
75718.23926597931
75719.77339512491
75716.1648274012
75695.91908133488
75754.13147219241
75718.38644790561
75636.8090268322
75552.45843710878
76960.57208835712
70585.96092723394
70218.49931674103
69571.8209182306
69187.72092753497
68932.59225455514
69060.87540637779
68955.8368086306
68934.09914393899
68945.30199003356
68973.02930673935
68996.85414668356
69010.97424737432
75535.42921512389
75534.36918844165
75530.77747402515
75524.93964963044
75513.58077651207
75492.83106723746
75454.69820046815
75492.89672795017
75430.35124159527
75331.21466515347
75179.14436858536
75812.35048949525
74587.60102115292
72485.25999058786
71309.89030664532
70661.06546546823
70223.0623526995
70106.12117059377
69904.01342424471
69781.47839879316
69706.94734038746
69666.0203452436
69647.18431962196
69634.99311733439
75363.60471759838
75359.38771991701
75351.24888008213
75337.91300266166
75317.09793095273
75284.84580144838
75235.70525661383
75261.38018060211
75187.42995284668
75093.8674391926
75012.60589375992
75371.20942401826
74738.73356889175
73364.65209454141
72346.6487255703
71678.41775183976
71173.61258254769
70922.12584918509
70676.97236101406
70502.42086991378
70381.4986059826
70301.4088755366
70257.34052916853
70229.37667905178
75196.64528335701
75190.08047498179
75178.60772296217
75160.04865889886
75132.88643750131
75093.29677939856
75037.25808787844
75054.9983307239
74972.93292379468
74870.08679349518
74768.50386155456
75036.64321424808
74559.28741687852
73604.80967961048
72890.64823290559
72307.34251277288
71839.79348000807
71544.24905903633
71292.86737519794
71100.26260439686
70960.4362534988
70862.56059754478
70805.97315127854
70769.29894406402
75037.0135041203
75028.76300611407
75015.21964989866
74993.2952743537
74962.10532508054
74918.06806805368
74858.14631072666
74869.54664767445
74782.1456159489
74677.07069991548
74553.39391129601
74754.19433152422
74371.93533025228
73670.06815631925
73153.72829998907
72689.61899075196
72297.28656330574
72012.68296851586
71775.78605258028
71587.2458348494
71446.37944826944
71344.91316046617
71284.65553612157
71244.27783793212
74886.75355811964
74877.22104896548
74862.57476585907
74838.68927019506
74805.26794053994
74758.97890673348
74697.61431604554
74704.48617353021
74616.37236956718
74517.19037776651
74415.07129696592
74558.12353459685
74247.02799783905
73696.9648667327
73299.69887765613
72938.12579866765
72617.44141191561
72363.60956192053
72152.28183571711
71979.80878850284
71848.0519962746
71751.56619591369
71693.68921251546
71653.49884705115
74747.04317591434
74736.60601620263
74721.52311175753
74696.74894121173
74662.51142582163
74615.63367763783
74554.78749557925
74558.37761175365
74473.20200554421
74381.03158360603
74285.21938113164
74375.32990628977
74130.93601187369
73716.33092361664
73404.13527139682
73111.74661681503
72846.76489100476
72628.45520778133
72446.40388072516
72295.04163874409
72177.31143480545
72090.19388289496
72038.04058707238
72000.75647450412
74618.41012440246
74607.46755849812
74592.44165832756
74567.6067408043
74533.61064812032
74487.36313725986
74428.40619692046
74428.75107466427
74347.30962819817
74256.94077993272
74159.14273133653
74213.11019319396
74010.82039961788
73706.38403780575
73468.08453838066
73231.1008904089
73013.69848461868
72831.86292491258
72677.74372812604
72548.43407029472
72446.43544556758
72370.37695888095
72325.18705457618
72292.19059929228
74500.91277283216
74489.99460168871
74475.33089956907
74451.10889703562
74418.12235813575
74373.37977336175
74317.251524366
74314.58175951974
74237.79431861693
74159.89397371352
74064.34949825796
74086.44788256072
73920.49329467365
73690.59763200316
73507.11970466368
73317.67292202506
73142.14491261927
72991.66504335383
72861.30138326687
72752.92430674033
72666.48341177998
72601.59666613401
72563.36214233057
72535.00319772912
74394.40722344229
74384.04608037858
74369.89991525655
74346.90189237235
74315.56771819991
74273.12110404488
74220.12113212499
74215.54864763955
74144.29853864889
74076.20719537413
73985.70261512513
73990.31165451524
73857.88747220041
73681.34378983038
73541.4521562415
73389.72247341729
73245.97177518238
73119.34794241324
73008.47293166049
72918.92660413364
72846.82851480597
72792.37588766492
72760.4802441995
72736.53432031508
74298.6886101008
74288.79688953012
74275.69236601205
74254.41225451208
74225.2287899662
74185.77013971018
74136.94510706142
74131.36928442626
74065.34070031566
74007.64109136419
73934.8854616857
73916.001934053
73813.2188635546
73675.94651544064
73567.80768390026
73446.66559758048
73327.82230734521
73222.12992708487
73127.82552511731
73054.65101076436
72995.19379009468
72950.07484460341
72923.65387524501
72903.68232856414
74213.07800398969
74203.63926091675
74191.98833254767
74172.72216941527
74146.01670191037
74110.05737816123
74066.06757476303
74059.20194312066
73999.40254555592
73948.34296905337
73885.44012826339
73854.2516063169
73776.44235497904
73668.83590316065
73581.5053396233
73484.4353717442
73388.12170237926
73304.63541969478
73225.59897056223
73166.38076048373
73117.79871067365
73080.86898173034
73058.98744095195
73042.5722120953
74136.98827707226
74127.86805253649
74117.90921881517
74100.82363292982
74076.75986421437
74044.21508508894
74008.08643439352
73998.54737597256
73944.08602223988
73898.50878691021
73843.67265922402
73805.26179718593
73747.86694351186
73660.74353841109
73588.73839076866
73509.15395934496
73434.06577350879
73370.09506524951
73306.82576416632
73259.04073597258
73219.6655447071
73189.80666089378
73171.5562131988
73158.3979038875
74069.63829343734
74060.70520482192
74052.54197305375
74037.70948038831
74016.36372902089
73987.31713893055
73958.09288984473
73947.24441358188
73899.92043270191
73859.34263296152
73812.07964979015
73768.08478368993
73728.23978534335
73657.22199412383
73598.15974799603
73532.07848196347
73474.20992753937
73426.23922976707
73375.85470753796
73336.72499204065
73304.78179694677
73280.84580890696
73265.5746501994
73255.37265110508
74010.10694181074
74001.25759357269
73994.88700202902
73982.23060010246
73963.59109449321
73937.96869649876
73913.68176555807
73905.03703087723
73867.11628812217
73830.84842623782
73790.52810546587
73742.45601947869
73716.06085351588
73657.76101253771
73610.0025652919
73555.29677055954
73508.86307839601
73474.58347047261
73434.08701987182
73402.04856882883
73376.20119649837
73357.173870017
73344.88594587773
73336.64520955883
73957.47158669877
73948.61286107099
73943.953749871
73933.28603357486
73917.21878470326
73894.70513975852
73874.38481251168
73867.60469666136
73836.84144910963
73805.5957207303
73773.48289454813
73724.14283670134
73710.46822597855
73661.11348469605
73623.67768481554
73581.81334464937
73545.66589630434
73516.5115733523
73483.20773670208
73457.19292528866
73436.40387551309
73421.44315312215
73412.16700611298
73405.06920206893
73910.86577545747
73901.996255255
73898.97652252219
73890.16655506377
73876.56786893972
73857.04096655575
73839.83914282669
73833.22302746787
73804.62944662711
73779.60565593098
73757.38612508864
73708.30175846614
73709.08077271542
73667.47977333385
73639.74116461365
73606.82848349717
73578.65231461808
73551.77293485758
73525.12816818965
73504.12256209733
73487.59336996121
73476.06994214137
73469.47397832916
73462.96245224251
73869.29739737025
73860.51480405153
73859.08910366558
73852.03296447672
73840.87760045478
73824.30288350953
73810.53690064867
73806.04309859574
73781.04373727308
73760.32657450798
73745.22362685134
73696.27522389624
73707.980274987
73673.62233571976
73651.43619024933
73622.00434769421
73598.37129424473
73581.1260883317
73561.91275663265
73544.80917837929
73531.89355542508
73523.06541600917
73518.86701624143
73512.65553669255
73832.37120628668
73823.8732884151
73823.8577777709
73818.46271394868
73809.56264324159
73796.0124101002
73785.85170902649
73786.05989742963
73767.20376905726
73748.87337839344
73736.7662376455
73688.10074380047
73706.73656319307
73676.58219796904
73657.9998968602
73631.59190322988
73614.33124192352
73607.40150352594
73593.14204859955
73579.9568620193
73570.16157498705
73563.548154235
73561.41585957733
73555.60283602925
73797.84094613306
73789.99448855106
73790.84554208351
73787.09190163767
73779.85871830501
73768.75933245895
73762.61547902797
73764.93542281129
73749.25141711895
73734.01043292605
73727.27866623226
73680.27228617866
73705.10385665008
73679.53408204643
73669.07681316909
73651.36921622032
73639.13458255467
73632.32937198719
73622.06185167952
73612.77232982768
73605.49922536068
73600.84119314018
73600.24858255884
73594.9694127551
73772.45510731594
73767.46496365394
73766.61180371243
73765.19219687102
73759.59429444319
73752.31062547406
73745.01779678278
73743.63983048452
73726.03896735382
73714.61721966535
73717.81655006237
73672.81016708116
73704.81066947461
73683.0435803033
73678.77934528458
73670.76516213207
73660.13335093435
73649.86358814212
73639.18451161457
73636.03795312282
73628.5828750463
73628.37798566955
73625.01227680402
73624.03065496453
73734.46340694286
73731.74995414271
73730.74235355611
73732.52819894091
73729.28072383357
73726.78442534794
73723.05219462494
73729.24462964899
73716.35303884644
73707.29576388031
73714.41722529568
73671.16956576861
73709.18056298111
73685.04200489672
73677.36390239201
73672.01382579404
73667.03188223354
73672.60677551298
73669.15632797297
73669.63854934277
73665.38848138032
73668.82471210252
73666.26495431039
73665.69114672753
73824.40622316029
73804.26509956129
73810.64143782588
73804.37984259328
73786.75058622421
73761.51688589106
73749.84973726903
73730.21520216473
73714.17688047033
73706.16137396109
73711.76566119656
73680.85749110131
73709.35541263981
73690.48269093981
73681.7942399923
73674.14020363156
73673.21370111164
73647.91553611745
73627.40478137245
73600.40573644436
73583.0897742511
73574.33143545997
73579.97881322241
73562.40081580804
76102.10423633203
76031.32987430524
75986.81039859804
75942.66339059061
75836.25861629529
75779.7788345013
75715.69546319488
75574.62847777837
75513.60894203093
75417.00759799169
75238.07965478767
75177.35314565741
75040.41042627
74823.66953088416
74769.59716108024
74588.9656147364
74340.59503925018
74299.71359082045
74078.60398510602
73810.48148106862
73786.89332291804
73535.49659738439
73261.96558025127
73256.84725345513
72988.67952710605
72723.35682994663
72736.79604760808
72467.51849513401
72240.97712765342
72231.29177527074
76202.50156054519
76146.43608137842
76079.67168591626
76070.08775978896
75974.49238351434
75891.85137074656
75867.22846471991
75732.12874388388
75638.04166937615
75581.93031917904
75400.43203022773
75302.89056338406
75197.03520231231
74966.46544620529
74880.45617045353
74709.97354681842
74436.04408706105
74379.20323398088
74142.52993183269
73842.73204380686
73824.68943017302
73534.67131118085
73230.78343240167
73251.73444222483
72928.46793342489
72638.3960658679
72695.23752695687
72358.48334134906
72115.83770992688
72160.59856929567
76360.98022095457
76330.84021252982
76226.91222148282
76280.60716590936
76210.87272889724
76075.27603840416
76130.23763152662
76014.99498485107
75851.55212558019
75883.29221247393
75706.78831897734
75527.1857071363
75495.17441406591
75244.6060738628
75079.84065196849
74931.86468720582
74603.84553986479
74506.19233430333
74237.4399942868
73867.48631669319
73855.37186296083
73491.60728891048
73126.26709198482
73189.463352438
72770.87540480899
72437.61921091989
72559.31639975727
72123.50812985521
71860.07132156879
71975.40848291204
76579.24468364049
76582.90159826902
76445.98919078599
76570.57594341002
76554.56475420427
76363.49698098634
76515.27352555371
76459.12987880042
76208.65698091511
76367.67801863342
76235.47687035438
75931.04182065748
76033.26463387319
75783.6026470089
75463.61401795095
75318.57648653603
74862.07230046831
74720.30415509682
74344.59592714027
73833.49426421901
73862.82006999303
73336.36840850957
72870.07987468582
73024.55190197793
72434.47809872548
72041.93664128122
72276.15380930534
71685.69466199083
71399.01871876651
71621.81480540885
76827.28585614917
76873.61544549929
76727.84912996381
76919.50470260321
76976.14601849222
76754.50564272043
77017.74878168128
77061.82212821361
76737.72701613989
77076.9619993464
77086.53327755084
76608.3765550346
77023.49534350293
76818.91494978617
76228.15899142349
76100.97165649275
75061.86676181531
74994.06539687909
74326.88110853494
73561.43888480114
73748.37132254096
72876.04490181647
72277.28096157606
72634.15943428068
71748.92316574106
71300.64289839841
71733.12901556023
70917.3389832956
70623.07042776096
71010.24494227045
77045.38850716875
77140.56175143061
77014.70729849272
77252.65889823664
77392.33324766962
77192.24052420135
77543.46267519856
77727.67009291404
77400.50942401908
77910.04049590601
78241.15616848155
77641.96223902547
77663.37276154377
75461.41394321405
76763.7316387388
77898.1832543596
74131.32100914723
74937.66665424104
73571.39736153084
72564.48302964824
73228.74823591048
71674.71648384341
70969.57385251699
71749.96502468143
70397.1966164318
69955.43040009438
70726.93384628008
69619.17411017841
69383.18371366775
70003.06959510902
77179.47057043946
77309.85763516526
77242.07788349563
77470.32689763188
77661.81691176746
77561.75901697688
77892.21083729737
78199.98257989578
77995.50174377537
78692.231384564
79125.42131750043
78177.36842776943
82531.20357632742
99988.71688748174
82247.08101394771
100876.3713345568
74214.55894104653
74300.49798365094
69584.66582980526
69545.68000626049
71614.26120140555
68943.90602624622
68262.46089670558
69836.46186069067
67816.81886610157
67578.73150471511
68923.32334555952
67476.23905439407
67451.6505941066
68409.719521013
77186.97360641837
77329.63381975777
77339.12535969225
77515.27678798669
77735.09813007021
77765.96778844943
78006.80964267143
78283.43288909692
78583.42190851386
78432.03408338908
78323.85665305638
79983.20031965425
78626.27456037691
72705.67109608866
90705.54614542107
58199.96262022058
50940.13084650843
60986.17556087438
58558.60745429945
60081.30976117273
65827.7586937552
61472.94306507905
62436.64232423533
65715.24320726104
63150.32431340297
63758.24953639204
65822.29558543174
64316.13224503744
64818.24417276068
66129.22168995933
77053.99719911863
77169.11594297233
77268.17437582747
77307.63051064422
77440.52504434461
77623.57034844797
77548.68853161392
77570.70901082107
78091.61850899662
77476.01564657904
76735.30417051936
78430.24693697203
78160.31365645562
60544.47948111272
63459.87557772311
49615.37543452062
38320.83777042571
43149.77065717895
45244.09245610806
48999.5632550071
53880.96447019653
52785.25805258442
55497.34049582014
58737.23709748205
57700.73549683897
59497.19120811008
61510.17546545739
61009.37303146891
62205.62024774999
63473.89830992268
76814.17629596221
76889.01653972574
77036.26894487621
76985.05668033651
77076.43118864841
77254.14840145396
77163.75522371593
77173.65841417194
77553.78787039348
77182.04374214142
76724.60968931582
78022.34108020416
77820.63458706495
62301.78801612803
62457.90005801454
54395.5551723696
34270.5604270601
34158.82740564076
35287.30152401806
38934.93750155581
46099.39436018099
44553.02358585494
49709.32930445509
53395.0590011305
54049.98427208953
57332.68835579278
58201.79417549133
59655.93685714386
61219.24937882071
61613.98748203171
76521.71719572561
76566.87037655956
76734.98127788235
76632.39169497351
76689.30158010684
76887.20104473757
76752.60620554177
76761.30701496276
77079.19922718576
76748.58207749022
76423.97435742269
77470.68299504272
77067.88151152559
65301.83310481509
66541.51923359044
56690.05165955579
63140.59493613432
61306.67322229694
62347.72491039109
63453.46652646155
59492.88877143195
62888.82856068264
62743.50585976242
59502.40330570382
62863.93762398243
63129.83275493477
60718.99127537572
63454.70800859928
63818.58690768312
62535.5624078774
76203.21499508923
76226.25921262788
76401.16019805502
76255.65198762139
76272.32835152188
76482.71724251084
76282.9221148308
76268.50031263354
76578.25902668164
76250.48394157478
76276.53756569541
77127.88742294647
75709.83564252651
72394.89262680909
65102.56631637081
66055.96250419975
62956.87271827541
64786.31200748713
66679.90893171352
66022.57174321015
64656.47229219157
66035.85035875952
66065.9778977805
64615.83821254159
66062.58615793004
66119.78377368806
64791.81576041395
66170.99235873827
66272.04398352947
65259.22703201727
75896.58640891618
75895.27771623137
76061.40006555768
75884.73981318747
75864.72677491946
76061.54676888209
75814.00334512268
75744.07976180079
75953.06893655621
75646.02528512431
75717.06528479978
75711.74287450413
72301.86580256495
71911.11578389544
71407.66255498561
69139.52235824669
68114.9338326603
68837.92185624421
68608.88429910716
68693.59094669919
67540.82248103317
68495.33447625928
68389.36623897616
67299.76178770282
68275.29233844439
68202.7333270838
67220.67902032794
68124.9077542388
68089.96763405943
67278.17647336177
75617.11169089691
75596.30956759481
75741.82165366461
75569.39256800037
75533.87599302446
75690.60550516057
75475.4639643667
75404.87404208547
75588.21248297002
75322.97785504794
75191.34724805391
75601.79309138554
75642.81304418478
71331.05852771101
71619.38571130365
73636.28517071568
72387.0188752117
70751.19438248625
71555.74758528656
70965.39618143077
69898.46707915318
70527.718948874
70231.95531631929
69362.56013970202
69973.61780757978
69785.74978686296
69038.46960963645
69615.76741816447
69493.76944507497
68841.75002490445
75370.44014792245
75337.73402268058
75463.53749596975
75305.88392735911
75264.43289294015
75392.33604278427
75208.83796606264
75156.73335390548
75257.21556000676
75120.59009428571
75074.87221330934
75043.64952602379
75570.89303930892
72547.21241740341
71990.18911108766
74770.58208899327
73647.66393533275
73215.40963266106
73067.10557483755
72445.90572182975
71829.6198530808
71903.44237190951
71547.34345661956
70956.66572863521
71217.35385923444
70957.65126547703
70413.67433148502
70728.56148954407
70558.34679158562
70052.36070072066
75151.2354897613
75113.5791761486
75222.50817784129
75078.86999653518
75038.01222329348
75148.51354772181
74979.59632565397
74931.98191652853
75043.88497095399
74885.20666727374
74823.22649054328
74961.50579679228
75199.39151881427
73119.2649430147
72904.88211961706
74657.89767655637
73919.10667869341
73841.68139573069
73529.89957790283
73099.75345182219
72846.7504235338
72657.50848627411
72334.70106912698
71995.09860538413
72024.90529285421
71764.0095798041
71399.05900219121
71529.11281074471
71346.39478669773
70967.14020482248
74955.10600873048
74913.17458120512
75010.32321484991
74876.22941456499
74833.03486520248
74932.53390348308
74770.95566491887
74720.75213542582
74817.98345764294
74655.0854915552
74597.20587660687
74700.88579209235
74880.74551619284
73317.91411457451
73243.85683558587
74458.88552463794
73920.1586815052
73930.30594998137
73643.80767047562
73352.09237972205
73247.66050000397
73041.45176775013
72771.78478468563
72580.10250244728
72516.11718684557
72289.61547796759
72053.58638053753
72083.04221331647
71916.02059602324
71637.58199941181
74779.68197419654
74735.26695289066
74820.78249388232
74698.32725947679
74654.66605255168
74741.21087683487
74594.76750428867
74544.82678116381
74626.65060555199
74473.29870765237
74429.02179681993
74505.73792770425
74648.2019383736
73413.74918728834
73365.58395052938
74298.6337955831
73884.8191167452
73898.53179491684
73682.86200990158
73470.32325297092
73418.11261574508
73233.12488359865
73022.67204780174
72911.10170385367
72824.06924414809
72637.95940834444
72483.5683705651
72467.15999954654
72323.95588975673
72120.01763350648
74623.86729485577
74579.49414461653
74653.79018030943
74544.3005968635
74503.22452351151
74576.43068372659
74447.91979173945
74401.61491072057
74470.71094166941
74350.19228714313
74310.50950002411
74369.43124683367
74463.81791829984
73602.20845539524
73515.73003199947
74192.03215271942
73869.30700397442
73875.12989565937
73710.5451659768
73534.85443602821
73504.00720506604
73358.91469095957
73186.44671229417
73113.33333845522
73032.79038500779
72881.10030194202
72774.81970944228
72738.60159213882
72618.05462843298
72468.4306217313
74486.36523304693
74443.64592142862
74507.90756183316
74409.97856657789
74372.36500964419
74435.46783704095
74317.7568082934
74276.14585397854
74338.93396322565
74223.69463292338
74181.41062061374
74243.9885186217
74288.41955383384
73669.85021000073
73648.99800067375
74065.18184997396
73826.96529884529
73852.87876618812
73712.0603698695
73572.86919380003
73557.54570551935
73442.00890944293
73298.91791553455
73251.02948070985
73176.32040320098
73052.87405691635
72978.99475584438
72934.32174895592
72833.74832792155
72721.97586214304
74364.7500872575
74323.98641427621
74380.13794185907
74291.26323127934
74257.31467707496
74311.97057877814
74201.63682762194
74165.9315390499
74218.95762060132
74106.29191382042
74082.46397074139
74128.17066035888
74143.61943314379
73682.84115068981
73679.80764101463
73960.38581376029
73785.38120317701
73804.98242390898
73695.68993463417
73588.10078787913
73583.04779704112
73489.47083683101
73373.34013436892
73340.88103684665
73276.07003350786
73177.11564904425
73124.21745252336
73080.51857500566
72996.775890545
72911.14431813906
74258.56423842949
74220.26582117469
74267.97637200143
74189.4692060166
74161.35738393986
74206.20610776883
74110.66171761442
74077.9842266808
74121.42345258839
74021.78958361126
74010.57125164122
74043.54430990697
74032.78983453581
73688.19807970678
73687.03624324845
73885.80957394926
73754.22674605357
73767.73594671841
73682.62895171516
73598.01402391095
73594.17629932689
73525.63562937212
73430.62745670161
73403.50224980744
73354.06291865528
73275.13149084186
73233.52758301664
73195.74132643509
73124.69224762093
73057.04530636211
74167.74861441464
74132.20689816434
74172.06598042579
74103.44440186469
74079.33922249201
74116.84724029909
74036.11953346558
74004.46363208417
74038.36798227883
73959.16485599599
73954.92176622101
73979.78750716538
73949.66067163921
73694.84172116475
73691.82813247031
73834.13167809922
73733.12136733242
73740.98063417785
73676.89173989595
73608.66592386767
73603.74111387138
73552.06473748689
73478.39635271717
73455.59152411876
73417.46860344685
73355.01947935717
73320.79967606027
73287.36660996931
73226.48601295451
73172.20420259472
74090.62665473099
74057.92919183012
74091.62239148574
74031.62175636877
74009.52567381824
74040.98305518333
73973.03079633566
73943.54512823114
73971.5491273088
73907.84232317971
73904.53673035915
73926.11371358659
73882.06442389946
73697.76726520904
73695.38862813651
73794.25726526769
73715.3188601149
73720.46242994064
73670.23057962765
73614.70637157801
73610.42582094336
73570.85134093175
73512.58472387325
73495.95857064379
73463.0758279899
73414.2517646151
73387.16813448054
73356.31314341622
73305.58167768923
73262.52923736855
74024.812266414
73995.30241072988
74023.84530986894
73971.1747054837
73950.9567798744
73977.31824647053
73919.20368289536
73892.81310521055
73915.84249087909
73861.80777163547
73860.70223191733
73879.051821364
73826.83027648822
73696.15642410828
73694.8452169058
73761.50471353221
73699.07837180498
73702.78922945164
73662.40896853301
73616.43025565345
73611.90301646023
73581.57380080233
73532.25261909985
73521.53392454435
73493.07968819275
73454.75700966544
73433.81564208271
73408.09045759922
73366.92560531998
73332.10395043775
73969.26340253543
73943.29029624716
73967.1679420314
73921.38131179361
73902.97223301794
73924.5314769445
73875.11934950354
73852.04622161605
73870.68503064435
73825.47762011256
73825.84017865635
73840.31809958407
73784.3797174208
73694.68875460869