/*--------------------------------*- C++ -*----------------------------------*\
| =========                 |                                                 |
| \\      /  F ield         | OpenFOAM: The Open Source CFD Toolbox           |
|  \\    /   O peration     | Version:  v1912                                 |
|   \\  /    A nd           | Website:  www.openfoam.com                      |
|    \\/     M anipulation  |                                                 |
\*---------------------------------------------------------------------------*/
FoamFile
{
    version     2.0;
    format      ascii;
    class       volScalarField;
    location    "12600";
    object      rho;
}
// * * * * * * * * * * * * * * * * * * * * * * * * * * * * * * * * * * * * * //

dimensions      [1 -3 0 0 0 0 0];


internalField   nonuniform List<scalar> 
7769
(
0.9978374044624745
0.997778015976117
0.9976246751445966
0.9973746096240159
0.9969695922047515
0.9963519770495621
0.9954704329869866
0.994476173335363
0.9927639933481212
0.990572915388682
0.9877584740675908
0.984262753622947
0.9801228582632143
0.9754720693983859
0.9705253255851177
0.9655391824755536
0.9607401931599034
0.9553677810435326
0.9515381750162267
0.9483894875707417
0.9458591008186868
0.9439612631562618
0.9427167789329974
0.9420187902937653
0.9980793192514257
0.9980328042305968
0.997917089720072
0.9977421383960695
0.997441458258244
0.9969618328499096
0.9963152626433386
0.9952240389720394
0.9937623879922056
0.9917374089095435
0.9889917715524232
0.9854272243756804
0.9810557556523636
0.9760434384680867
0.9706840137977543
0.965315152978289
0.9602070669193221
0.9540856650793637
0.9501085215649775
0.9469570859244492
0.9444985924167404
0.9426832305938746
0.9415529257469261
0.940912242582237
0.9982894132210778
0.9982767757543867
0.99823091298192
0.9981577392042592
0.9980114366184406
0.9977527467186883
0.9974156818680515
0.9963940819554966
0.9953227168579539
0.9936344513818807
0.9911027043486406
0.9874656459094275
0.9826009315823057
0.9767795279259307
0.970513994597631
0.9643495781554603
0.9586522649234128
0.951756300913884
0.9477166379142548
0.944554145305836
0.9421623236052157
0.9404017800396193
0.9393154797638761
0.938678233084051
0.9984771519151953
0.9985228736881664
0.9985791500066125
0.9986498872319818
0.9987294440675933
0.9987902967481257
0.9988628080357765
0.9981619272593489
0.9976895726642033
0.9966689769902382
0.9947239228167941
0.991206879849943
0.9853277722265505
0.9777719269673969
0.9697098748487681
0.962161761759822
0.9555832199536415
0.9476221428840905
0.9436407122432033
0.9405887582218815
0.9383811683041997
0.9368124540592844
0.9358695059949176
0.9353234138298939
0.9986151631435307
0.9987229663789909
0.9988864077648998
0.9991405019710481
0.9994876559934692
0.9999224536917248
1.00046317626087
1.000337601140066
1.000696634273154
1.000830538382013
1.00027772708027
0.997972714762729
0.9902782311864978
0.9784919379514987
0.9671666114163577
0.9576114226118378
0.9500211365261494
0.9409129183256743
0.9373975803062407
0.9348172054215899
0.9330955994929817
0.9319629825705872
0.9313034484323975
0.9309511384374201
0.9987070112938725
0.9988550480452109
0.9990929832520918
0.9995029969881466
1.000083645420635
1.000869378378351
1.001966399117047
1.002486629796968
1.003957586353664
1.005759439788346
1.007825072222833
1.007071138768055
1.001500269680127
0.9768300917416414
0.9601325378271177
0.948428067092264
0.9403005091360089
0.9306976184399403
0.9285830738916196
0.9271333616629721
0.9263875810546315
0.92602111104407
0.9258444740252062
0.9258200434331483
0.9986643305522204
0.9988379373351071
0.9991114395603324
0.9996375305661258
1.000381465239347
1.001443802407465
1.002975377301327
1.004107717298809
1.006680006938087
1.010148805258113
1.01451973044881
0.9944160478631123
0.9679428794253915
0.9644693742554915
0.9428233779567285
0.9304045129340413
0.9238733813727404
0.9163281610185943
0.9168885156455943
0.9176979381461913
0.918665310723455
0.9195818986554304
0.9202034879215581
0.9206914655859123
0.998319561959245
0.9985369083473373
0.99884951177912
0.9994557725479296
1.000275173301564
1.001488705719185
1.003175832158535
1.004754503097459
1.007962893296375
1.013412500297857
1.02606897654337
1.042345403140382
1.004050461628269
0.9233124492809115
0.8961379127279416
0.8958948638702598
0.8979242226408437
0.8977790059304933
0.90335106870618
0.9077735464174458
0.9112128053901635
0.9136460168889169
0.9151493653024865
0.9161604868116248
0.9976866395969741
0.9979085559611123
0.9982296397204011
0.9988511161821922
0.999657755999887
1.000871757975759
1.00241551186235
1.004168782695118
1.007138782090575
1.011126741809857
1.015484112759519
0.9953578026747266
0.6824845632788779
0.7645104722949304
0.807164316877461
0.8420627446981391
0.8647532464766758
0.8797786367840035
0.8918086380354244
0.899975394469647
0.9056291519279858
0.9094060647518343
0.9116847811438432
0.9131650060448326
0.9967740548122119
0.9969741387500005
0.9972610331495072
0.9978096779645136
0.9985090180379554
0.9995530089297161
1.000722570780085
1.002390333656494
1.004405145719372
1.006757711376283
1.012911875668104
0.9904441962759203
0.6459040387775866
0.6683356826663002
0.7415803456422235
0.799263268256188
0.8399450274273004
0.8707005941146764
0.8859543856552058
0.8961664055903559
0.9029282265973835
0.9073794515089715
0.9100094143141522
0.9116274113401085
0.995599175175462
0.9957633816917911
0.9959884712148788
0.9964090354318973
0.9969358332758406
0.9976929192097668
0.9984533147002395
0.9998954819672805
1.001296613325668
1.002991044054031
1.008137795772828
0.9906381158238894
0.72233782370704
0.8210357151552181
0.838056056504497
0.8394981001884095
0.8553590090755245
0.8807308256719093
0.8911152048137245
0.8992621729163478
0.9047565841797381
0.9085925482899148
0.9108081485708893
0.9121263741587493
0.9942101443146776
0.9943299076462115
0.9944802646012082
0.9947576616738577
0.9950920932382036
0.9955405833319064
0.9959264656046681
0.9970761614096852
0.997886613448851
0.9985362074262575
1.002048109668519
0.9879306573067033
0.6254638292223645
0.8718236451718419
0.8826204551064779
0.8853615861969448
0.8885695340259852
0.9001005985376156
0.9034813738968395
0.9078453735420304
0.9110939309290351
0.9136443667568034
0.9152173175722383
0.9162157053815668
0.9926715401926075
0.9927423104148144
0.9928192653082544
0.9929621236708593
0.9931189476070074
0.9933046492432944
0.9933714936656612
0.9941872256700608
0.9943656636787023
0.993984440859078
0.9937761121496371
0.986262378066142
0.9014434444906249
0.9191610800651049
0.9110614683793901
0.9104507400026635
0.9103471441789799
0.9154356299018458
0.9161438213818895
0.9175825449368125
0.9190464197591955
0.9202816011843119
0.9210790784376434
0.9215975983899102
0.9910482450269213
0.9910728484613579
0.991087693955221
0.9911231421244744
0.9911385749830172
0.9911114392580875
0.9909189604642398
0.9914482887682395
0.991118286569012
0.9903142823169688
0.9914805964688262
1.008508302519478
0.9355504692729769
0.9421819888353845
0.932257212120052
0.9291088995328883
0.9267331817665173
0.9279235474323819
0.9270160501431821
0.9268038261912032
0.9269243705429714
0.927199798195277
0.9274312435223516
0.9275691188029327
0.9894118411534579
0.9894024940104176
0.9893689029836806
0.9893157968138607
0.9892106672867902
0.9890231850459864
0.9886597967548586
0.9890110378245085
0.9884257388185325
0.9874462932757707
0.9882285354563579
0.9901351245548845
0.9792703631005365
0.9640367855839287
0.9491619161513554
0.9430565076552586
0.9390888764636207
0.9379399295092247
0.9361049962460508
0.934927250698106
0.9342249428427362
0.9338411602594771
0.9336632284150794
0.933550934566952
0.9878044877744265
0.9877657109892121
0.9876897642484322
0.9875663696187471
0.987372037359066
0.9870764634258031
0.9866068934593257
0.9868497720130065
0.9861540757975785
0.9852225462225306
0.9869498873571578
0.9819842630536764
0.9822788553668751
0.9715011828476952
0.9593662319962118
0.9527928710594541
0.9481100233160537
0.9457318143644944
0.9434906369648576
0.9418169227033123
0.9406724115605241
0.9399137505506699
0.9394942262620972
0.9392309250316559
0.9862419361802502
0.9861811013481042
0.986073819266659
0.9859010162985026
0.9856465344987255
0.9852818707332107
0.9847445513478111
0.9849184983588892
0.984151861724185
0.9831155904264849
0.9848965543013823
0.9754836721621908
0.9808760490232109
0.9721578491105527
0.9643175119785885
0.9589357691503192
0.9544391805409524
0.9516565339801327
0.9493620241266963
0.9475167118393563
0.9461929257572004
0.945264691810175
0.9447264933306582
0.9443800713705105
0.984746702783715
0.9846699726214868
0.9845430813440271
0.9843381298394748
0.984045442537625
0.9836389496174374
0.9830629568398689
0.9831837380100543
0.98236334290996
0.9812940954471351
0.9830804031299993
0.9699465054072048
0.9791159025130123
0.972210875981814
0.9662414056203003
0.962584227345494
0.9587954184791165
0.9561108011148213
0.9539559552254121
0.9521511254352397
0.9508180797725487
0.9498558091770058
0.9492837345701506
0.9489018510544872
0.9833380950176603
0.9832490722852483
0.9831117772586619
0.9828879709700821
0.9825742643635571
0.9821468195223747
0.9815560660172833
0.9816418540043459
0.9808005596768032
0.979789495659968
0.981975459492463
0.96591352773842
0.9782606830508551
0.9726656156301985
0.9674210569410254
0.9648909956837493
0.9618176783503668
0.9594455564767879
0.9575309750882308
0.9558812159677916
0.9546355801310068
0.9537207664079318
0.9531722655865896
0.9527917706175841
0.9820273948256527
0.9819294694723725
0.9817882220905864
0.9815559773854454
0.9812347029764547
0.9808015897643311
0.9802141139512721
0.9802717970382773
0.9794476935384362
0.9785124566061497
0.9808466780264758
0.9626540892736265
0.9776950234521341
0.9732352999127056
0.9685312871408637
0.9665528122720451
0.9639688309878048
0.9619605798256867
0.9603206402313768
0.9588724873818748
0.9577611034859558
0.9569353046359033
0.9564419164542595
0.9560886558293608
0.9808197430837178
0.9807169005370844
0.9805762194410689
0.9803434831005619
0.980024308524588
0.9795962852012325
0.9790248918011299
0.9790512329228295
0.9782610639473184
0.9773553707281928
0.9796899607222649
0.9599550000732406
0.9768983918269566
0.9734067523824368
0.9691658957237637
0.967712283855051
0.9655353549559044
0.963887932941595
0.9625131677449402
0.9612743031278056
0.9603132805184901
0.9595923634369364
0.9591655793600546
0.9588528128727364
0.9797160293933698
0.9796134237265488
0.9794759664019118
0.9792488687048553
0.9789387748926199
0.9785244326637611
0.9779794758551855
0.9779775085178719
0.9772330964758905
0.9764896352828319
0.9787744489184563
0.957810921985606
0.9762098685954523
0.9733366916494376
0.9696043235706893
0.9685114814089457
0.9667511215099736
0.9654006715791656
0.9642513025304807
0.9632105944533215
0.9623982648100139
0.9617833332373145
0.9614227528006938
0.9611539266174133
0.9787151722360096
0.9786176854107438
0.9784848509498842
0.9782689463153307
0.9779743938392539
0.9775824830045191
0.977067519505479
0.9770459146659851
0.9763635019604723
0.9757232069200217
0.9780262482729657
0.9561327560998529
0.9756614354949351
0.973221636183863
0.9699938314673295
0.969141047145289
0.9677430312835714
0.966610610767743
0.9656444668537351
0.9647811878264682
0.9641055543625757
0.9635899111352265
0.9632894818437816
0.9630624898897061
0.9778153003724679
0.9777220458994376
0.9775987803843786
0.9773988508978279
0.977125078705456
0.9767615685655183
0.9762860538203046
0.9762499250739206
0.97562997247078
0.9750833319546511
0.9775169558258283
0.9548217789955776
0.9752057462868208
0.9730687122835541
0.9702939558726021
0.9696617117843196
0.968508655058548
0.9675827430476825
0.9667739882557445
0.9660650654729018
0.9655090404898895
0.9650822845425172
0.9648338553454735
0.964644499232283
0.9770100895934536
0.9769209411181603
0.9768111808767715
0.9766302801625362
0.9763802969394197
0.9760487258179992
0.9756219559261637
0.9755677357985524
0.9750095927222441
0.9745194963012157
0.9770437795883772
0.9537504754354033
0.9747654329770559
0.9728263537461754
0.9704673764911865
0.9700540743860306
0.9690610126763931
0.9683584064534313
0.9676982371892455
0.96712195003108
0.9666685247406837
0.9663192217160179
0.9661140903285772
0.9659584378091497
0.9762941321095405
0.9762078283148168
0.9761139205672874
0.9759536454426114
0.9757283642264816
0.9754275334777863
0.9750842540812498
0.9750039669466661
0.974478613845175
0.9740525070457637
0.9766087858192964
0.9529004735657418
0.9743690312083256
0.9725399189239787
0.9705241581096188
0.9703285236024339
0.9694907596261965
0.9689738302678139
0.9684652276816273
0.967997224947284
0.967631711276501
0.9673488049295011
0.9671785690227015
0.96705372363779
0.9756601792522843
0.9755755278660159
0.9754984711365026
0.9753593034229719
0.9751591190434066
0.9748914858129829
0.9746195969247867
0.9745278511690846
0.9740485154383767
0.9736917260494083
0.9762435896122434
0.9522245582661535
0.9740538565645287
0.9723333780341575
0.9705568999648795
0.9705617247995639
0.9698726132139521
0.9695006240502435
0.9691189259724193
0.9687301365908452
0.9684359489343256
0.9682090184106622
0.9680675036996488
0.9679702785302963
0.975099619733952
0.9750157387902266
0.9749554598105035
0.9748365139961798
0.9746618431316277
0.9744283288210929
0.9742025222505825
0.9741226395653652
0.973736792174924
0.9734290030338415
0.9759678630785066
0.9517169402060528
0.9738198347978646
0.9722348856733088
0.9706123397975683
0.9707774566704112
0.9702021990164199
0.9699507806867844
0.9696708755716371
0.9693473367658766
0.9691102023817618
0.9689305360703937
0.9688165954646055
0.9687382585681565
0.9746038429347184
0.9745198855520937
0.9744755973704842
0.9743752795703687
0.9742255865609628
0.9740227295653601
0.9738278145346169
0.9737578772339193
0.9734647244355755
0.9731955756871614
0.9757293566424095
0.9513369068105031
0.9736650645338017
0.9722098637557196
0.9706962114477786
0.9710219132783269
0.9705632624042866
0.9703445267108919
0.970133398866886
0.9698699177296825
0.9696779252865398
0.9695375637218067
0.9694522817454728
0.969384564652724
0.9741647109973064
0.9740806154880992
0.9740517038594741
0.9739690098604449
0.9738432178507083
0.9736676206979226
0.9734943577781521
0.9734329403484966
0.9731755165537235
0.9729589596850411
0.9754883112692062
0.9510499812967615
0.9735543384873421
0.9722334371621363
0.9708184708670011
0.971250305988716
0.9708769129268285
0.9706834079714718
0.9705252973172057
0.9703150868135957
0.9701612326072344
0.9700527082909663
0.9699937748685168
0.9699314762595136
0.9737729300083303
0.9736897450705257
0.97367575889062
0.9736098929077921
0.9735072181095822
0.9733576010833709
0.9732133340561606
0.9731866062534426
0.9729501976316268
0.9727887097912504
0.9752734812656777
0.9508787136278314
0.9734322103260826
0.9722856085822362
0.9709261753781363
0.9713915715474045
0.9710474457936232
0.9709674755022275
0.9708701279888879
0.9706986330616367
0.9705807311759581
0.9704954754354295
0.970460054303688
0.9704009904393057
0.9734252380107663
0.9733448436922593
0.973343937208723
0.9732941562302914
0.9732122684973483
0.973090426013018
0.972982210276564
0.9730060824734872
0.9728055987952908
0.9726924752438371
0.9750849340695897
0.9508056411329691
0.97328473534792
0.9723444377822549
0.9709769883570653
0.9714916048790317
0.971178225874855
0.9712132386997467
0.9711678576374438
0.9710269892445963
0.9709430013994819
0.9708772404014593
0.9708608922930217
0.9708060773713537
0.9730981947483638
0.9730248926516409
0.97303128259341
0.9729972970733829
0.9729317567565864
0.9728336127489562
0.9727623064779326
0.9728015797094548
0.9726301430907048
0.9725632416318712
0.9748771627473368
0.9507780631570233
0.9731068782691762
0.9724195529875
0.9710440195280392
0.9716890965136211
0.9714168638157865
0.9714439223655608
0.971448236155251
0.97133557609842
0.9712774788718109
0.9712320389954846
0.9712276990200689
0.9711797538705987
0.9728734328627773
0.9728282522771046
0.9728160365641837
0.9728043017103379
0.9727544507595502
0.9726924066269957
0.972600584231729
0.9725923588001505
0.9724128920560988
0.9723970910426859
0.9746685786627672
0.9507874104750661
0.9729136767926664
0.9724945288926307
0.9710919896903983
0.9718708366369252
0.9716509146880395
0.9715975626112441
0.9715960021459463
0.9715438375861155
0.9714763774620171
0.9714785687542916
0.9714422392443383
0.9714386989852684
0.9724678634507303
0.9724316837068914
0.9724352615820671
0.9724523197612753
0.9724264518168595
0.972406758164708
0.9723603768946869
0.9724475096479923
0.9723297291970094
0.9723503165702837
0.9745232881225272
0.9508775910232978
0.9727456871259117
0.9725562950606914
0.9710599876726099
0.9718678801467363
0.9717501542233241
0.9718645609275643
0.9719280975462539
0.9719046718757727
0.9718812827543548
0.9719096050586111
0.9719106993807748
0.9718832983723726
0.9738104507137743
0.9735476641595818
0.9736260442912661
0.9735459034147856
0.9733141987812443
0.9729871663921286
0.9727999640136585
0.9724566601470639
0.9723037634362656
0.972352723726942
0.9743774781154771
0.9511014986254304
0.9724973193734838
0.9726403432037254
0.971107044067
0.9718948075835002
0.9718307004562796
0.9714214221131515
0.9712081761664335
0.9708428352636335
0.970615266676631
0.9704994407785233
0.9705740653323823
0.9703388021152769
0.9946804135234427
0.9940514447088206
0.9936067664053417
0.9932064515940446
0.9922323332265766
0.9916660438720983
0.991085207817086
0.9897862007872772
0.989177342854182
0.9882914385897382
0.9866356904391006
0.9860308572054393
0.9847650191718125
0.9827503234463643
0.9822110284209181
0.9805305522358112
0.9782125885740627
0.9778024618600739
0.9757343200712206
0.9732231441465808
0.972982068692294
0.9706197482633584
0.968049455155588
0.967989728056414
0.9654577877205557
0.962956339209461
0.9630825136993593
0.9605295381518862
0.9584229179574799
0.9582731355087436
0.9956161641943879
0.9951239446954548
0.9944858645301405
0.9943925826705119
0.9935189285224308
0.9927300077731157
0.9924967648428349
0.9912538659496828
0.9903587287542369
0.9898302823194222
0.9881519676592954
0.9872235330042995
0.9862296742884543
0.9840870275035648
0.9832662945428603
0.981664336956062
0.9791078931421877
0.9785610851705618
0.9763344808137279
0.9735257486031026
0.9733448967637099
0.9706116201977135
0.9677552782542649
0.9679444100501201
0.9648894801151017
0.9621536944481821
0.96269095720578
0.9594970646343758
0.9572352951349962
0.9576019598050552
0.9970891229443679
0.9968408374126773
0.9958559114031128
0.9963532214722393
0.9957201237049044
0.9944363673066163
0.9949475908049644
0.9938889916240967
0.9923455145673242
0.9926395798360251
0.9910078218653139
0.989313206769825
0.9890138876654188
0.9866820397419255
0.9851292899753298
0.9837385719846998
0.9806759735570566
0.9797490223786712
0.9772223530260249
0.9737542560804233
0.9736310778352972
0.9702039111489567
0.9667674004268508
0.9673562631801028
0.9634010293954811
0.9602548375520289
0.9614063837934581
0.9572745991694848
0.9548158496488769
0.9558494824602819
0.9991290858696347
0.9991858438945742
0.9978973370745873
0.9990537802812929
0.998920951526427
0.9971192894435367
0.9985329480181244
0.9980229832917272
0.9956684389729941
0.9971476819959262
0.9959243449740403
0.9930734554584375
0.9940323403494131
0.9916431005711803
0.988718150051753
0.9873332288565337
0.9830688910101854
0.9817452032683085
0.9782138846305251
0.973427488662964
0.9736976065816562
0.9687381798454139
0.9643478716241747
0.9658007368006776
0.9602236912513638
0.9565109986471905
0.9587301452194111
0.9531291222489285
0.9504455203446327
0.9525001643573606
1.001453304146466
1.001893497116602
1.000525617746156
1.00230192824542
1.002845985011708
1.000763347750794
1.003207793923772
1.003626506087186
1.000594639237216
1.003733869620898
1.003786347736843
0.9993713937930085
1.003381258787756
1.000151415572541
0.9959759930041159
0.9944945072045631
0.9849150375945633
0.984250218313336
0.977984608325736
0.9708252598644928
0.9726238248839677
0.9643972693970285
0.9587524473169997
0.9621196639500338
0.9537411174902843
0.94948539724074
0.9535902441725672
0.9458393008761593
0.9430713145082237
0.9466947320825435
1.003489895657033
1.004379101911716
1.003193251652392
1.005394256815968
1.006706224079803
1.004838816583723
1.008084733131178
1.009851545386607
1.006764575012129
1.011542085163437
1.013701237899696
1.009052280585886
1.009129296728303
0.9841572474708282
1.002512939612415
1.009382897946743
0.9742685648235392
0.984015721954526
0.9709289055679093
0.961391055212491
0.9677766425221199
0.9530691126555511
0.9463876867306545
0.9537613283126463
0.9409096206130377
0.9366817656336615
0.9440341618156218
0.9334704559986403
0.9312272658884693
0.9370936136307574
1.004747521968293
1.00595673099632
1.005310590441377
1.00741178652302
1.009161689814238
1.008286567552528
1.011153995044828
1.013830369787803
1.012227279651078
1.017258720284276
1.026044291835446
1.009424029438586
1.056747860634145
1.288455927834574
1.027348796461067
1.223256914578687
1.001759035035688
0.9844727091520945
0.9420066667910121
0.9347737652031677
0.9523584279319625
0.9271340276346309
0.9204642549276603
0.9355378073662741
0.9161881942995205
0.9138730015406518
0.9268026969219889
0.9128678125275203
0.9126178044864052
0.9218086316053418
1.00483089106985
1.006148175851713
1.006210253093886
1.007861779697155
1.009915288921167
1.01018497611198
1.01244043445659
1.015025392135566
1.018019738673112
1.016117241188371
1.021422811695067
1.035226131814011
1.006561892317624
0.9166885351417124
1.108634392086858
0.6958460061234109
0.7864034716617776
0.8779779899284283
0.842401918859185
0.844511136695047
0.8996312500690705
0.8540806101062989
0.8634421532054667
0.8957157054618059
0.8706415720069109
0.8766465172323689
0.8968429557483305
0.8820933800045494
0.886981301468993
0.8997734863887856
1.003605286156694
1.004657711426828
1.005563414794998
1.005951220843251
1.007193540186626
1.008910072329285
1.008125594142574
1.008015672578884
1.013565285018719
1.00752731657553
1.003968275065085
1.022027848377964
0.9952720275120344
0.7741187883090495
0.8059106337972127
0.6134043242292909
0.6365517183651354
0.6798305530894375
0.6981380810540702
0.7315637203290205
0.7826603709096054
0.7666342074192977
0.7935970167512726
0.8265617036254842
0.8161947308421181
0.8343551887230808
0.8544909667120602
0.8494315688394349
0.8612494403569196
0.8738543802969004
1.001365154004228
1.002036281858127
1.003409249714596
1.002934403972472
1.003783786070692
1.005431280707878
1.004550478596393
1.004425668725178
1.008377384337119
1.005457331473448
1.004084585517808
1.018716476703392
0.9966900927261245
0.7995472767310993
0.770755602785579
0.6404369332382617
0.5725990389039646
0.5751596550735324
0.5769499270039089
0.6199461214074694
0.7008659535191923
0.6778314025622743
0.7325276859817115
0.7722207809956066
0.7784954129142205
0.8123165689666977
0.821425547555209
0.8357890794809457
0.8513521961409272
0.8555051526523613
0.9986291228223113
0.9990331430681734
1.000610552819605
0.9996566910384102
1.000170159978508
1.002016418643703
1.000749826375958
1.000842798137351
1.003949630764405
1.001911079985643
1.002564559826683
1.012761499279965
0.9940994651196919
0.8043139622264832
0.8147657744852382
0.6876565471063746
0.8553643537766239
0.8450831735053914
0.8612022529498239
0.8775999863448481
0.8316832419560121
0.8681371387061599
0.8660628236938175
0.8341516580360705
0.8675515212469693
0.8703570637009542
0.846451793912802
0.8735391144836712
0.8769353615662069
0.8644552361238387
0.9956407675385799
0.9958551643283546
0.9975043648708718
0.9961467696948746
0.9962789986847369
0.9982512100796012
0.9964061780743126
0.9963889330115663
0.9992226517229528
0.9978955104549396
1.001543596433729
1.00978267257563
0.9934284843039985
0.8738501697138643
0.779514476907176
0.8959936742835718
0.8797532059579368
0.8732833463810866
0.9081766665325522
0.9018198254362021
0.8891124603172939
0.8985345492435166
0.898574685533351
0.8844228877981886
0.8988444135047489
0.8995632309797965
0.8866378617550558
0.9000920616876954
0.9008945290972955
0.8911413690803578
0.9927721035970214
0.9927652973907022
0.9943304536374937
0.9926806703891324
0.9924785554946842
0.9943344178991423
0.991978206773372
0.9914511938275292
0.9934181104700375
0.9921154790244446
0.9958794818475688
0.9957602058948236
0.9662134513816968
0.8755924661902774
0.8653311967216006
0.9134858854080673
0.9251888797412063
0.9374023859040946
0.9263482964544946
0.9272144621510542
0.9163842011715586
0.9220196106708519
0.9208723910465397
0.9104991229658617
0.9203621615552979
0.9197547552554264
0.9102413045651224
0.9189680830134301
0.9185026202926524
0.9107014562042132
0.9901598242140179
0.9899739129920437
0.9913352261981335
0.9897245168523301
0.9893937707023359
0.9908570356248265
0.9888038474339613
0.9883617649372269
0.9900566147799688
0.9894912248082994
0.9918141078036168
0.9957222891512162
0.9906459836773736
0.8748115536531674
0.8757584869506109
0.9676670018036763
0.9649182968232585
0.9494031532210733
0.9550752094317172
0.948778146813261
0.9386882535191977
0.941520158859531
0.9382562988064321
0.9300532010409582
0.9365784741882447
0.9349800289660585
0.9278231729628695
0.933290534061784
0.9320166187648958
0.9257386041856159
0.9878540531580426
0.9875571892278776
0.9887278705865513
0.9872548633049151
0.9868727923559271
0.9880641619755411
0.9862868411525384
0.9861398042552567
0.9870148927252597
0.9878252723305168
0.9904960229041913
0.989974464107694
0.9856933047943194
0.8990517722749306
0.88777281440157
0.9820241769051321
0.9764284203735831
0.9724441579765091
0.9690733984104576
0.9624312433685864
0.956744423730517
0.9549773622675597
0.9510327370585187
0.9452686003262538
0.9483839601246769
0.94608652875431
0.9409564582228979
0.9438923920227026
0.9422070083147526
0.9373370967990033
0.9858019858389482
0.9854618529773927
0.9864692147205832
0.9851324379503733
0.9847540858825241
0.9857756801962628
0.9841333557531801
0.9841009647851051
0.9851111601325199
0.9858572765532744
0.9881797110993822
0.9894988824789051
0.9786137061408903
0.912990101907093
0.9070251092511845
0.98166289486682
0.9780319048706327
0.9777190895294542
0.9720872545133923
0.9676415403236158
0.9656351126930597
0.9621847579621933
0.9589534951032656
0.9555618583890447
0.9561932132031851
0.953748900687359
0.950287290399858
0.951485005349704
0.9497084271055616
0.9460631691278124
0.9839647781475984
0.9835899393766893
0.9844832304334414
0.9832369027408043
0.982822802851957
0.9837451737456797
0.9821672612154835
0.9821727993253576
0.9830435042719687
0.9839311375569869
0.9856708082724374
0.9868300301108005
0.9724350888541093
0.9206968110281183
0.9171704871923959
0.9798939630155779
0.9771130988559984
0.9774857933040499
0.9720908091858783
0.9688041092417981
0.9682787091483923
0.9654477973444813
0.9631571471640172
0.9613449560326737
0.9609386834672796
0.9587873788115919
0.9565463031213212
0.9567579928640982
0.9551193345549823
0.9524350521491662
0.9823243510685628
0.9819264119362845
0.9827111032665184
0.9815635956368086
0.9811374294136721
0.981939635142578
0.9805059245006705
0.9805825658885889
0.9813095508525508
0.9824249085383981
0.9835196557515885
0.9845057672899724
0.9677155292676527
0.9264158774524606
0.9236356602453833
0.9785822264739777
0.976695814597449
0.9769130660989611
0.9724983372714225
0.9695454145339556
0.9691826768306291
0.966890242109273
0.9653536767921225
0.9643797301026428
0.9638271411021444
0.9620691483711217
0.9606401088806631
0.9604022858403714
0.9589944969976573
0.9570223461287912
0.9808665484443517
0.9804647729746057
0.9811463474726605
0.9801089860862994
0.9797093092628756
0.9803840674471457
0.9791283581962836
0.9793167486218282
0.9799168382645538
0.9813765003455088
0.9818367727412195
0.982648828570309
0.9641456985917143
0.932042420519596
0.9294909791326679
0.9780669835897108
0.9768313460470761
0.9768844865605194
0.9730833552243082
0.9704041308476627
0.9700734040636905
0.9681357255487572
0.9668418797797393
0.966170231753388
0.9657984887221674
0.9643338922587025
0.9633604982199919
0.9629584438291088
0.9617829919905312
0.9603371996332691
0.9795746296999241
0.9791866054217544
0.9797753520395434
0.9788412788242072
0.9784764306432718
0.9790557653619555
0.9779133490858171
0.9782433990029833
0.9787690267888091
0.9802917317608399
0.9799827484297599
0.9808621661434686
0.9611587053819377
0.9351637779861844
0.9338522304448558
0.9772742992777592
0.9767123419662644
0.9769172480198675
0.973400884723794
0.9710478294151651
0.9708476683939503
0.9689841087164373
0.9679148061570877
0.9674821364031522
0.9671918045021626
0.9659621063572471
0.9652795133492094
0.964797647118808
0.9638156195858698
0.9627415543407283
0.9784310896406131
0.9780609334371746
0.978573992034255
0.9777242609417325
0.9773900527009814
0.9778910075608968
0.9768455882886629
0.9773193869644684
0.9777485016623672
0.9791584839152218
0.978405625170031
0.9791166143718831
0.9587325079546497
0.9368770200183194
0.936071200299033
0.9764950107180506
0.9764374940349866
0.9766002155284897
0.9733630690034023
0.9713987402079629
0.9713066854272815
0.9694539983028461
0.9685575080848716
0.9683013959852047
0.968142248989143
0.9671592029802728
0.9666686844019703
0.9661740257979067
0.9653451367157156
0.9645243793699173
0.9774348262427464
0.9770863675205196
0.9775204040925466
0.9767740325734057
0.9764981163119701
0.9769009071482839
0.9760259386553701
0.9766063634009615
0.97695117792622
0.9783382833622202
0.9771003279832409
0.9776767502239211
0.9568231609669405
0.9380055510252745
0.9374152901311669
0.9758621263346416
0.9760950028481046
0.9762331388600068
0.9732229103408521
0.9716054442472543
0.9715448557277567
0.9698443307068489
0.9690706168834542
0.9688373750312962
0.9688427923314306
0.9680966927264448
0.9677193099386701
0.9672701294146913
0.9665527067237667
0.9659011841098682
0.9765799479240486
0.9762589246657531
0.9766198429242315
0.9759755575736886
0.9757315087938575
0.9760684774214836
0.9753381066346073
0.9760104557505762
0.9762708824819403
0.9777486310407136
0.9759734813447813
0.9764562346362811
0.9553482469859907
0.9388065035026461
0.9383373543352256
0.9753622492345254
0.9757703702101629
0.9758761319025736
0.9730843099950439
0.9716976693286494
0.9716632062778163
0.9701314655770334
0.9695838903828137
0.9693525842725449
0.96940389496666
0.9688194869429835