/*--------------------------------*- C++ -*----------------------------------*\
| =========                 |                                                 |
| \\      /  F ield         | OpenFOAM: The Open Source CFD Toolbox           |
|  \\    /   O peration     | Version:  v1912                                 |
|   \\  /    A nd           | Website:  www.openfoam.com                      |
|    \\/     M anipulation  |                                                 |
\*---------------------------------------------------------------------------*/
FoamFile
{
    version     2.0;
    format      ascii;
    class       volScalarField;
    location    "12600";
    object      T;
}
// * * * * * * * * * * * * * * * * * * * * * * * * * * * * * * * * * * * * * //

dimensions      [0 0 0 1 0 0 0];


internalField   nonuniform List<scalar> 
7769
(
266.8616386789611
266.8547797481347
266.8386316591078
266.8126933067016
266.7703359389246
266.705387311562
266.6137798445656
266.4964892175625
266.316690776908
266.0821876779866
265.7794807303195
265.4024468220433
264.9545345150729
264.4498162879503
263.9113826866317
263.3666887937029
262.8416545485848
262.2493728796471
261.8261185612632
261.4788448109431
261.1995739587076
260.9894199708166
260.851433437542
260.773432190903
266.884087532684
266.8789182516018
266.8670410594389
266.8487003379057
266.8171599225986
266.7667627922986
266.6986597970072
266.574240474439
266.4172583948237
266.1996311018021
265.9043334600634
265.5204806920195
265.0490578571399
264.5071883991486
263.925867050039
263.340659229039
262.7818186797849
262.1133775880448
261.6743774096425
261.324316180051
261.0507262259548
260.8475859251286
260.7201477311089
260.6475666896607
266.9062495359078
266.9047794795834
266.90060460674
266.8936580216057
266.8794086216893
266.8536215276847
266.8190349443925
266.7033661645992
266.5868411240145
266.4060675875035
266.1342976166965
265.7426117274105
265.2180015896135
264.5884368137099
263.9080549918407
263.235032444915
262.6109678169904
261.8508777055734
261.4041192611477
261.0525738452501
260.7867320310664
260.591061413695
260.4699669335114
260.3992260785097
266.9276491541748
266.9319833862658
266.9385166762547
266.9471371978756
266.9573544576913
266.9657760090816
266.9751572215987
266.8938114870222
266.8409364272308
266.7326709822536
266.5258093492857
266.1507532883891
265.5164685091096
264.6995947109055
263.8214821060022
262.9950172269483
262.272956170479
261.3867286351842
260.9468801360161
260.6091757436231
260.3651574344972
260.1920061861111
260.0874740183911
260.0274085009565
266.942661994034
266.9543386020945
266.972020898649
266.9996627279693
267.0379418488698
267.0857965479404
267.1483970145811
267.126586275045
267.1637328513315
267.1801736137297
267.1259468752246
266.9181893539121
266.0470893706442
264.7890717360516
263.5416117557868
262.493810314378
261.6594454879989
260.6370786170783
260.2491945691671
259.9660727770049
259.7769992544473
259.6534965620865
259.5813968025587
259.5434532256922
266.9497858551521
266.9664514660863
266.9926747321111
267.0377043875029
267.1009309750041
267.1865003991554
267.3084449603855
267.3593447713357
267.5126040248861
267.7068491370121
267.9147171643263
268.4484275938095
267.4243071639995
264.497121371789
262.7647883777788
261.4780874221912
260.584921663542
259.496188649816
259.258663934226
259.1076463978152
259.0300418562326
258.9915463760888
258.9732456402534
258.9719621060599
266.9407973923931
266.9606570698631
266.9914775954009
267.0496214088794
267.1303495484696
267.2456381630265
267.4111556575431
267.5365456945477
267.7993225640594
268.1725396970555
268.8367113370398
266.8168385426683
270.6951983520365
262.5755761337099
260.904827481709
259.4672154831791
258.7533002093907
257.8820608247907
257.9441831435057
258.048581337845
258.1628087726736
258.2676466056936
258.3386295557434
258.3949614821514
266.9025559901374
266.9259911003418
266.9601829868068
267.0260540749985
267.1144035797676
267.2450228574597
267.4240112166921
267.6050910189125
267.938583228226
268.4909233128175
269.432770330183
270.5594841090589
292.7398741486869
250.5351220496127
255.6150439489763
255.5681547632286
255.8164428547528
255.7721973978632
256.4042414333267
256.9229936265623
257.3172032027292
257.5943026120227
257.7634727296491
257.8769831558822
266.8344918025654
266.8581381131427
266.8924572301315
266.9585529476025
267.0445967625699
267.173137718593
267.3351042189767
267.5373082781817
267.8433058974429
268.210300178526
268.3539364254226
268.3136999235598
287.0143428570511
233.3071125183967
244.9424000665411
249.320433564333
251.9829960834594
253.7114439791244
255.081011589723
256.0341787227411
256.6841657260844
257.1158043450077
257.3740545793505
257.5396063499832
266.7369366701188
266.7582673087716
266.7887756849054
266.8466818728483
266.9209901672277
267.0305651159372
267.1551079911407
267.3448032088461
267.5600752705338
267.7930047527815
267.7953053179083
268.2365882993688
291.1051527082241
223.6900274697731
236.5344381701003
244.1679685264705
249.0564503738087
252.7461392348153
254.4670300494805
255.6357514386687
256.4000218818542
256.9042538391715
257.2019385557635
257.3853785428997
266.6118810185469
266.629384988127
266.653396460739
266.697885842578
266.7542406184963
266.8340418536418
266.9164079327196
267.0801393389409
267.228782745582
267.4078175964246
267.2743260744667
267.6991694045348
281.7813994687112
250.7047377959071
248.7225326601059
249.0875857009244
250.9266695861352
253.9887914584539
255.0861224210351
256.0139062041055
256.6320471267021
257.0642829399695
257.3151938156963
257.4653112761204
266.4642386857649
266.477011150114
266.4932258904724
266.5227251830003
266.5591088666913
266.6060724075567
266.6469594715975
266.7787943199356
266.8634378692678
266.9477616776546
266.7109733748315
266.6452188241949
288.1277167777507
250.4868372639259
254.1710689285605
254.5056558430054
254.7681232619141
256.1470171518407
256.489152387473
256.9785635752372
257.3426429648273
257.6299161996898
257.8069339951326
257.9184288505716
266.3005831671911
266.3081698851247
266.3167296117496
266.3319113471715
266.3490287932881
266.3670161308593
266.3734280752972
266.4693453013708
266.4847316059184
266.4505472565031
265.7859818112247
264.5049815339655
261.1204762963991
257.1607386233378
257.5068738077053
257.3244817623703
257.2702516866176
257.8684639771412
257.9095882095791
258.0721977063004
258.2305950827872
258.3677270334593
258.4579308033548
258.5166334776151
266.1274545932622
266.1300943088735
266.1319767098503
266.1354337900294
266.136681930949
266.131284920287
266.1118043154594
266.1742673704724
266.1372549249514
266.0663596327478
265.4570065984418
265.8389549816288
262.833623252723
259.6250286020681
259.9725117114403
259.4132869426193
259.1192685278736
259.2684640962858
259.1275514124421
259.1051814978742
259.113588554823
259.1407932342923
259.1656140275018
259.1801212205466
265.9520910176624
265.9508712615698
265.9472542309823
265.9409738535082
265.9292355440232
265.906559702656
265.8699315396053
265.9100568955136
265.847080660402
265.7610297465786
265.0145997336987
266.7321134580939
265.3345714286326
261.9304002422729
261.7214245708411
261.0190934133402
260.4970922124112
260.3818605299514
260.1401337055732
260.0112620380049
259.9288093499952
259.8829582627192
259.8622056451881
259.8479712908235
265.7788877797507
265.7744491421563
265.7661794815675
265.7523445563075
265.731210287984
265.6969569182484
265.6499034321093
265.6751563293711
265.6013496882267
265.5216519504214
264.7701141086353
267.3811382034086
265.0578986620823
263.0712208405003
262.7022557050918
262.0714566176118
261.5110736036152
261.2423353735544
260.95772281776
260.7758392163176
260.6453097917453
260.5588549083121
260.5118016506621
260.4811146995667
265.6102387872342
265.6034338578921
265.5917997081372
265.5727739320474
265.545340963623
265.5036470524684
265.450276036761
265.466141152066
265.3824467623659
265.2977488593427
264.4587153067015
267.9681664176411
264.7996642852457
263.7540995676836
263.3186200573286
262.6773905938492
262.2084163585051
261.8932513672341
261.6037941681102
261.4051489677931
261.2560712376512
261.1519161976099
261.0920288563327
261.0525207102374
265.4488308587965
265.4403268884656
265.4266172398211
265.4042911321123
265.3728157319139
265.326521755727
265.2696403439662
265.277446388555
265.1890483533754
265.1049883860082
264.1850218675146
268.4834958983861
264.6091088849032
263.9735469949565
263.7428121157768
263.0652377455161
262.6793054122705
262.3799100388395
262.107498371361
261.9145231285908
261.765619929674
261.658677544085
261.5952340105582
261.5522776846152
265.2967630118423
265.2870095085031
265.27215933088
265.2479060802243
265.2141000517477
265.1653408985272
265.107144440397
265.108362683862
265.0227997566159
264.9436433791827
263.9915824127751
268.8973562471167
264.3956383247125
263.9464652033299
263.9468394494362
263.3335279514159
263.0134750188309
262.7421185794163
262.4986353962779
262.3231222646597
262.1846081563422
262.0836676673784
262.0229568550424
261.9806504092245
265.1552473227604
265.1446624521658
265.1292904999602
265.1040971017584
265.0693459189008
265.0198977293566
264.9624901428867
264.9596569678177
264.8796479925679
264.8046762506299
263.8342031553077
269.1463265286104
264.134962418664
263.8612830081557
264.019913134612
263.5065299698218
263.2552794709969
263.0142887536388
262.8030377587058
262.6500368150765
262.5266016897834
262.4360108143471
262.381434541417
262.3425319121853
265.0248538624312
265.0137764292278
264.9984160917285
264.9730775626976
264.9385309339707
264.8898287017193
264.8346443837872
264.8287462029118
264.7526407890654
264.6758771477321
263.6974041869345
269.3143962404933
263.9220252718393
263.7792096488929
264.0768952760941
263.620464328587
263.4304529735496
263.2235166144285
263.041679106903
262.9120681507314
262.8051663500911
262.7264896673742
262.6792646379056
262.6450679549939
264.9056319117574
264.8945521779652
264.8795738051645
264.8548339001262
264.8213461403564
264.7741943790307
264.7218021170279
264.7128247853194
264.6407414132696
264.5643202477987
263.6066735964544
269.4565837151515
263.7858371736981
263.7416962658178
264.0977333840878
263.7143182095915
263.5620148778911
263.387697395878
263.2306773553029
263.1231230758029
263.0323250633861
262.965476970112
262.9255631552528
262.896316755723
264.7974376751133
264.7869331198374
264.7725160086526
264.7490556080312
264.7171799025475
264.672046099812
264.622576735038
264.6121251947288
264.5428548077098
264.4733490703135
263.5282047783908
269.5792565366031
263.7105799952186
263.7397523360777
264.1149837999095
263.8019908993401
263.6656196475781
263.518168358598
263.3818354971549
263.2941755472885
263.2181761585856
263.1621718671682
263.1289000099434
263.1043012208497
264.7001158473976
264.6901186816613
264.6767963296178
264.6550907981284
264.6251983397534
264.5829519035324
264.5376020927038
264.5274954673831
264.4598228064121
264.4019419978362
263.4844057069876
269.6782760407718
263.6742409478666
263.761878317556
264.1279129612441
263.8649153160903
263.7515939449333
263.6234596795269
263.5041833678704
263.4336834403597
263.3708666343426
263.3244645511849
263.2968712742659
263.2764323945293
264.613018720859
264.6035081518565
264.5916897243833
264.5719780514783
264.5444345435435
264.5059599821693
264.4645912545637
264.454773489592
264.3925030106885
264.3429463338692
263.4357141217405
269.7556475333662
263.6619140655388
263.802126329659
264.1298832443695
263.8938255848868
263.8180237253464
263.7091036676144
263.6044845878682
263.5482544465386
263.4967977375009
263.4589131258611
263.4359519541106
263.4192019342372
264.5355672308536
264.5264084200481
264.5163157085705
264.4987696179021
264.4739243470627
264.439261081927
264.4032830002906
264.3909731026905
264.3388184205298
264.291452546498
263.4040650378041
269.8171768390898
263.6670152078332
263.8508353369643
264.1403924350859
263.9079285624705
263.8661689381371
263.776951900377
263.6878954518968
263.6434140697783
263.6012465520176
263.5708104692484
263.5514673322146
263.5380913810448
264.4669796712657
264.4580291385711
264.4497674510649
264.4345240593099
264.412553634358
264.3813486518662
264.3506457993419
264.336753086851
264.2975842475586
264.2492540150875
263.3898640433156
269.8726923759265
263.6821352635458
263.8942651855904
264.1652976303819
263.9268006269014
263.9064715755353
263.8353618083104
263.758163141165
263.7233068043801
263.688515071576
263.6641972555128
263.6477867953841
263.6375523814538
264.4063349299088
264.39746425751
264.391048516751
264.3780804053825
264.3588392062877
264.3305898962516
264.305011368101
264.2957707351305
264.2648349303547
264.218601130083
263.3873499748673
269.9228244825347
263.7019342880611
263.922930378296
264.1927138321436
263.9514675496969
263.9412460950543
263.886545179695
263.8172322405497
263.7901475951283
263.7617829064229
263.7422823120279
263.7291163444492
263.7208088273202
264.3526981185487
264.3438055296974
264.339163822415
264.3282396290306
264.3114016647242
264.2859285498027
264.2661356858578
264.2608600062535
264.2303520532823
264.1915821131373
263.3908762316461
269.9635920161194
263.7238418955845
263.9417355474689
264.2189635846233
263.9801474199089
263.9751513836609
263.9299905483331
263.8678396274497
263.846082773877
263.8236376565173
263.8080769829979
263.79795123927
263.7908721427205
264.3052001309029
264.2962983122267
264.2933432929347
264.2842721241673
264.2697649634189
264.247561145622
264.2330359661904
264.2260303816639
264.1935687330675
264.1627758079996
263.3984767824448
269.9870137797058
263.748871571069
263.9581469100086
264.2433303215548
264.0077941584498
264.0082307029684
263.9643951579309
263.91175927815
263.8935194676639
263.8760170485133
263.864155641275
263.8564985171703
263.8500591557406
264.2628305414659
264.2539853597556
264.2526803220506
264.2453102340872
264.2332613978191
264.2145569745884
264.2044482987433
264.1956184817853
264.1703037638786
264.1399680185473
263.4130536861304
269.9915824623739
263.7780235315531
263.9659915538643
264.2559787972069
264.0238243759651
264.0326076775872
263.9924818779841
263.9500119479551
263.93526365587
263.9209685469007
263.9124646049609
263.9070264431893
263.9007908585068
264.2250726742211
264.2164824439745
264.2166729982213
264.2108768614701
264.2012502197834
264.1858222376133
264.1788263444243
264.1730902227388
264.1600094516476
264.1250824256106
263.4337734482455
269.9823820955885
263.8135404233105
263.9606252500492
264.2656986726694
264.0310175861657
264.0543009807533
264.0199256166403
263.9811136778443
263.9721072520456
263.9597970200156
263.953946296822
263.9507399259394
263.9447841731281
264.1902591185452
264.1820698974454
264.1833819133157
264.1791703720198
264.1710678307709
264.1579729404846
264.155334389249
264.1529778460199
264.1433631930255
264.1069418050006
263.4560151870783
269.9615299702025
263.8559133527462
263.95081031274
264.2871947551508
264.0482582581209
264.0783811135475
264.0466219019841
264.0086300667552
264.0059349476815
263.9956406048692
263.9912844378898
263.990338511606
263.9844348419279
264.1603944744787
264.1547934813505
264.1550553609595
264.1531582282672
264.1466482241365
264.1374112558268
264.136227154409
264.1335254409762
264.1192193791455
264.0825927896665
263.4785771001676
269.9315353093415
263.9072601503042
263.9430321510134
264.3089454857818
264.0684047543567
264.0900558740688
264.0677358111482
264.0298705941195
264.0327645574209
264.0243660841411
264.0230358337969
264.0208401322855
264.0182821863099
264.1344676766361
264.1345743164265
264.1299929005943
264.1317571167998
264.1271496747557
264.123556005959
264.1227833924415
264.121300841782
264.1071071196755
264.0690659886418
263.5057073038928
269.899924728773
263.9684855128145
263.9334275519835
264.3125781813844
264.0736838419844
264.0878162385719
264.0767111417429
264.0470807989628
264.0551735187681
264.046294275448
264.0509162032474
264.0414439745451
264.0468315336249
264.0920593477552
264.0912745653935
264.0928287363689
264.0921627798767
264.0919345740207
264.0903540682947
264.0993944883631
264.1222924094745
264.1063633705578
264.0643481222338
263.5356595025682
269.871869185342
264.0365272097496
263.9301068241975
264.3156633011162
264.0739890689497
264.0880876658143
264.1086313109549
264.0930513126112
264.0955540756868
264.0953251010395
264.0954059065868
264.0953701263442
264.0962945446217
266.5280430628727
266.4486582291519
266.4118180467387
266.3643531294161
266.2522800143057
266.20591578779
266.1366789309621
265.9894660638302
265.9382936352748
265.836172180974
265.6505334191672
265.5989393531236
265.4559102084273
265.2318163061129
265.1856663744989
264.9984084927357
264.7418486141458
264.7072430447624
264.4788939749981
264.2015867454879
264.1825941245483
263.9232909534725
263.6397147473947
263.6375620069477
263.3613429862689
263.0856331194486
263.0997776271021
262.8224605052204
262.5767285009476
262.5825612565259
266.6288264360133
266.5644420101937
266.5016037273843
266.4930287263127
266.392180636874
266.3138844972252
266.2900447955751
266.1491490593368
266.0587546580521
266.0033185002966
265.8152579555903
265.7210497541981
265.6149184380146
265.377036346381
265.2938246182338
265.1217638658177
264.839368906182
264.7850082577622
264.5444077556326
264.2348677126797
264.2193890180977
263.9225390653892
263.6076097315903
263.6315043003473
263.2990730646047
262.9974912191366
263.056404054554
262.7094023487082
262.4470894286517
262.5094320365042
266.7886365666931
266.7497573963859
266.6500280584723
266.7046719560187
266.63027594222
266.4994702151474
266.5549747354039
266.4349554766349
266.2756003863204
266.3081074017899
266.126150460393
265.9495790073275
265.9173133901199
265.6610968997317
265.4971857859127
265.3485089138845
265.01197002725
264.9154833301113
264.6423877386415
264.261419222528
264.2515070473607
263.8788217101603
263.5003633628641
263.5675420449615
263.1360219916114
262.7891776468109
262.9153801897672
262.4642271857156
262.1789597123669
262.3157942010827
267.0049347766964
267.0025174085045
266.8693221658193
266.994833652685
266.9744995273135
266.7893579818253
266.9411622560177
266.8815923654112
266.6363642214465
266.7963682605949
266.661663583146
266.3592582253504
266.4605595351966
266.225507839195
265.8856537796883
265.7468720162306
265.281951252104
265.1365827968057
264.7557458016367
264.2284808578722
264.2600993904689
263.7198348730302
263.2360290677153
263.3972157223523
262.7863059136216
262.3766739661152
262.6204020942779
262.00559785403
261.69463935545
261.9449761702243
267.2480829310759
267.2917538388727
267.1496580775432
267.3423275282324
267.3940473153056
267.1789871547184
267.4420755974334
267.4834786497102
267.165620243561
267.5074127522586
267.5266442722063
267.0417446489703
267.415791460906
267.5668009056657
266.6222397388661
266.5738993024082
265.491367354965
265.430722322141
264.7547137400108
263.9605103936229
264.1419268762727
263.244092724031
262.6183886189942
262.9914536685487
262.0684214140958
261.5983301907593
262.0521863873106
261.1950169632976
260.8746453225148
261.3008736526621
267.462843333974
267.5561517750981
267.4353908107266
267.6744059381793
267.8088952422991
267.6129064679146
267.964933060149
268.1315550686893
267.8216645926012
268.3114988564445
268.8778916863799
268.0480461969167
268.1015001325282
267.1100661998611
266.7447639428383
268.8445262411744
265.0652897791524
265.2943131053268
263.9680630567581
262.9382935036117
263.5944645300091
261.9819680181581
261.2359413955534
262.0666734026446
260.6377196417392
260.1711751365179
260.9918417480402
259.8113390712394
259.5543740710362
260.2339282126757
267.5929472743923
267.7228158530498
267.6600175433863
267.8910302129775
268.0875235691623
267.9745065423503
268.3530527880145
268.702168475151
268.4239916670887
269.4823031127885
268.6456040570154
269.7970644126553
272.5403481840949
270.3405785828478
272.2964698513288
287.2774809155033
264.2560305612993
262.9165075228736
257.3293844228196
259.1752071065144
261.956330421594
259.0497488119166
258.3478338089633
260.0463108114678
257.8591426774869
257.6048289674556
259.064993759888
257.4973627906826
257.4740449783528
258.5275621628925
267.5967575519573
267.7403464752353
267.7566892451473
267.9267879481082
268.1402535688787
268.1751223600448
268.406387146576
268.6722218596391
268.9085116706354
268.8929832282346
267.1273295887563
269.149366948441
268.7556525956449
276.2970826167053
285.019981125692
291.3663398400212
237.5278278196903
249.9477289119463
242.1593290258623
247.8356753232204
254.9026480278207
250.7349964389809
251.9046035567132
255.5793385847155
252.6771655580482
253.3621203435116
255.6739226977238
254.0008490321533
254.5731576811752
256.0295136149047
267.461973145026
267.5809642480621
267.6831280599615
267.716569780196
267.8460022575018
268.0223238148524
267.972130119115
268.0774526155928
268.3999979497253
267.8799813123956
266.2594563878338
267.3318256456708
268.3256942145924
272.4562364142796
274.3103167316084
281.772924996541
218.8628745411279
226.430800698816
225.7617510084396
233.3296130407944
239.8235504486622
239.858032483726
243.6138395456873
247.5529158444118
246.2733249411723
248.4135631006581
250.7663747516363
250.2061475851484
251.611498136116
253.03809875177
267.2260024061947
267.3072086254061
267.452678761508
267.4014242555394
267.4922678981479
267.6697099468382
267.5909376610492
267.6585353622693
267.9228344522286
267.4129534752433
266.1915097378802
266.8059179719143
268.0028973110932
271.4477048340788
282.2932538060743
295.8808488339034
211.9018833182582
211.8400748522209
213.0640300139959
218.7838931931562
229.1342802794761
228.9735456957693
236.3979311794278
240.8737077149124
241.8629387910089
245.8707162424755
246.8300199918755
248.6490416243123
250.5004735549374
250.89181769351
266.9379320622839
266.9874277633859
267.1518120246146
267.049220377456
267.1103404712547
267.3061957675368
267.1759851302875
267.1814509482245
267.457685087254
266.8523260895921
265.5504747131392
266.4771735868025
267.249664010659
282.8326719913347
284.5048971430325
287.1872017772978
253.8932947283995
252.2853734536977
252.2001060256738
251.8770259846057
249.1936194525142
252.3567821847749
252.376664712056
248.4959422575278
252.4271804995683
252.6777447546067
249.891871633044
253.0528922425385
253.518357393701
252.0080200928912
266.6247339645219
266.6479437973984
266.8178992294397
266.6726761571098
266.6955935601068
266.9028893103638
266.6985907123952
266.6527845701888
266.9764964789963
266.1873098618045
265.3083531480788
266.0806748637122
265.8830412295472
288.6029493151971
290.9402012994749
260.018953300878
249.2941574932564
255.897970998704
255.7728660910063
255.0365766347747
253.3291234391779
256.0205378439267
256.1259013174495
254.512326555649
256.0358970573919
256.0528066402875
254.5679291552154
256.1005598313708
256.2631896647725
255.1086190208945
266.3192073046067
266.3164409363321
266.4792429632487
266.3021640324886
266.2861495485409
266.4786945200568
266.2423332351489
266.138169261049
266.3440902695245
265.6156742136366
264.8602591791977
264.8733649910878
262.3708239817922
286.103929586186
287.469827032638
262.1342371945254
256.4730558964922
255.8182407306385
258.0095975661994
258.0868246339694
256.754795225638
258.7918791061504
258.7134088099318
257.4920392751515
258.425059245262
258.3209027266944
257.2623117161473
258.2470152456881
258.2453674844415
257.3522634318397
266.0385643462605
266.015324362777
266.161367306234
265.9876144348217
265.9514795833478
266.1097540616518
265.9043581104662
265.7744904229214
265.9646130746135
265.1827962582462
264.099388997496
264.4987833611001
265.9983848909743
284.0494614874253
286.1727828405093
265.0914685100232
261.3364343608465
259.6049191860426
260.9977495116665
260.5624146301548
259.4036482902557
260.9516374051578
260.7612670399465
259.8047781673136
260.2675165911827
260.0124994075695
259.2123874909389
259.8487102477062
259.7478875936731
259.0558112081497
265.7896571402486
265.7541836533837
265.8827701513944
265.7231794971667
265.6797349670521
265.8103360174148
265.6412108710039
265.4967554842706
265.6160119386662
264.9162931047348
264.041187407318
264.0704258053266
267.0807328861813
281.1032324545586
282.4888327707841
265.2396176436587
262.7534188760143
262.2814865575914
262.6606673243862
262.2249099056919
261.5395907852595
262.292829126532
262.0763658685521
261.4976434044154
261.5962080456164
261.2751974422553
260.6857498370987
261.0370490595562
260.8746490568676
260.3495200518909
265.5683086638083
265.5268545098439
265.6403753477574
265.4929049749983
265.4503736961817
265.5657763984047
265.4110240564668
265.2512099464533
265.3749232086652
264.6133786206208
263.7729827425258
263.9081518880166
267.6904291718971
278.9944469230387
280.0058557401887
264.9373524835417
263.2894752511123
263.0978469186874
263.5048028775758
263.1668726959461
262.8009589421688
263.0581974769518
262.7719211378238
262.4665338812559
262.4018246084187
262.1213865990965
261.7383611442029
261.885046687706
261.7047182108619
261.3165890510148
265.3697904528855
265.3224110039201
265.4254275227763
265.2867796069285
265.2454518761411
265.3490980121775
265.2023019688878
265.0227425767453
265.132564383926
264.31663955762
263.6455696134669
263.7018679851798
268.249764797388
277.4107416903456
278.1960409067938
264.7081184425277
263.5408041132894
263.4764849733201
263.9120435920477
263.7584281543388
263.5258283123236
263.5544855926275
263.2059401013574
263.0075021954024
262.8867376764057
262.6536362876336
262.409416870473
262.4586072810918
262.2997176300871
262.0205536136975
265.1908378200362
265.1407374248288
265.2321674998785
265.1076410588086
265.067770197827
265.1582540980544
265.0256779294442
264.8275446376655
264.9218235892368
264.077279504466
263.6265091989976
263.6339079492654
268.7209043773862
276.0585647103946
276.7078616007392
264.4924722023923
263.5273527273251
263.517646583078
263.9413481214758
263.9815688126884
263.8927047104598
263.8518844262204
263.5124125472194
263.3755154586703
263.2119498928636
263.0190221669774
262.8504117345501
262.8559838594073
262.7216537114644
262.520702213379
265.0315888072604
264.9825348678773
265.0622510524777
264.9536366905901
264.9156690149613
264.993462876252
264.8760856432881
264.6604165347329
264.743978530222
263.9224008686336
263.6578806886454
263.6488801194831
269.0496572758922
275.0964449990138
275.5274714073719
264.252119618387
263.4354694857846
263.4419038195254
263.8817714730076
263.9796277053677
263.9588512786712
263.9650707914585
263.696897182031
263.6165933772684
263.4275448422787
263.2796558328882
263.1613558519336
263.1402077958222
263.0251815978762
262.878407914255
264.8921358364726
264.8451244312275
264.914462741907
264.8187402305222
264.7835708470566
264.8514193502895
264.7415026465919
264.504001077685
264.5854286394207
263.7649232054953
263.6977769831587
263.6836023485423
269.2500712176358
274.4302122909161
274.7378490331786
264.0142859194493
263.3165478927731
263.3537233221044
263.8011141968749
263.9410151566821
263.9404482411121
264.0326926601446
263.8093850852266
263.7549319894714
263.5650203427491
263.4553537323048
263.3750308245333
263.3452713182428
263.2500803973014
263.1393298322963
264.7687288365919
264.7237428419491
264.784843340058
264.6983065510755
264.6678179610494
264.7269383943926
264.6167783370259
264.3612237415925
264.4341269693025
263.6525057331119
263.770540397655
263.7416228807812
269.4053036226281
273.9766736032097
274.201237968208
263.8511253879215
263.2423077515561
263.2683653656887
263.7527741464089
263.9002916296507
263.9071798995295
264.0752658404358
263.902004628806
263.8550291580713
263.6651968567057
263.5767691312861
263.5198856247862
263.4972421190047
263.4212930587772
263.3361710683228
264.6601477531406
264.6179880211774
264.6705200968614
264.5927682463644
264.5672431168384
264.6180878884463
264.5142923679582
264.2405215230801
264.3021535183607
263.572650508508
263.866592546315
263.8285091796459
269.539394080082
273.6669422723309
273.8349441258844
263.7560223556922
263.2234859374633
263.2344466129222
263.7440072296052
263.8796913070683
263.8823869472711
264.0988850759762
263.9682086570123
263.9342243470414
263.7549823968458
263.6742270313679
263.6272859726836
263.613622339109
263.5532168919781
263.4870146397421
264.5678724610065
264.5280458152409
264.5724649274843
264.5021856984409
264.4822809779564
264.524840655647
264.434592142402
264.1394423834717
264.1899618034655
263.5084785503226
263.9726158702704
263.9308208082149
269.6523975311543
273.4581129302292
273.5836482410731
263.7066251635056
263.2357101027962
263.2352370757669
263.7610343144607
263.8928340404324
263.8845373628138
264.1156217418893
264.0000990652721
263.981139663922
263.8301700520918
263.7647666745626
263.7203811587761
263.7071609787141
263.6569236812492
263.603789768675
264.4899035710333
264.4516735355262
264.4898782397294
264.4274880608663
264.4126960610407
264.4476885606092
264.3706558853523
264.0573758664741
264.0988914217894
263.4661530911023
264.0751049711204
264.0344157898629
269.7403621418823
273.3168256936625
273.4117729250358
263.6847244405086
263.259510852687
263.2557651820156
263.7936480512382
263.9263908397971
263.9137049199743
264.1254587935708
264.0042129769593
263.9970566714958
263.8743409416008
263.8363233051925
263.8009945716598
263.7821018592314
263.7384233962744
263.6958104258616
264.4218866958528
264.3864183455375
264.4192970856371
264.367149022863
264.3553780503894
264.3846522111826
264.3159286258876
263.9902186612968
264.024875747297
263.4215321298934
264.1743743131095
264.1351933208053
269.8088254520964
273.2237592449779
273.2957834525749
263.6818731204817
263.2819086904402
263.2802061652099
263.8377760572166
263.9661102432696
263.9515627095454
264.1340670775177
264.0074957991027
263.9994819618282
263.894985974389
263.8772880887403
263.8548041285779
263.8383357311931
263.801359087492
263.7672911039072
264.3624454849555
264.3326675380791
264.3598710603343
264.3197170299134
264.3079595984151
264.3322970242504
264.2688301196021
263.937385613172
263.9655881768285
263.3994263728634
264.2738200635065
264.234925244383
269.8669928391187
273.1673537884153
273.2217608740704
263.6918180726993