/*--------------------------------*- C++ -*----------------------------------*\
| =========                 |                                                 |
| \\      /  F ield         | OpenFOAM: The Open Source CFD Toolbox           |
|  \\    /   O peration     | Version:  v1912                                 |
|   \\  /    A nd           | Website:  www.openfoam.com                      |
|    \\/     M anipulation  |                                                 |
\*---------------------------------------------------------------------------*/
FoamFile
{
    version     2.0;
    format      ascii;
    class       volVectorField;
    location    "12600";
    object      U;
}
// * * * * * * * * * * * * * * * * * * * * * * * * * * * * * * * * * * * * * //

dimensions      [0 1 -1 0 0 0 0];


internalField   nonuniform List<vector> 
7769
(
(206.8398737850379 0.004809640616365926 2.898293425816398e-26)
(206.8677977999335 0.02231861396859088 4.749330552945925e-26)
(206.9464402258312 0.04737112843850109 5.154349990071596e-26)
(207.072392509144 0.07897205057060273 4.763554433369097e-26)
(207.2779133315077 0.1236757582992793 4.480194702405333e-26)
(207.5927758449535 0.1834639744440012 4.452665554963988e-26)
(208.0357464871018 0.2648375902802759 2.584526280201976e-26)
(208.5940249542718 0.2082815632438406 -7.356416159094961e-26)
(209.4559967095221 0.233101892797831 -6.173827614051122e-26)
(210.5777352585082 0.2995688254326537 1.817156615862505e-26)
(212.0169182776359 0.3773407226505929 5.392638391430444e-26)
(213.7958761698261 0.4557873613944282 2.355611273528452e-25)
(215.8902469668482 0.5229818340351429 1.904858058361993e-24)
(218.2262232397818 0.5677312286076192 -1.117329656531232e-24)
(220.6911115311894 0.5833002101848445 -9.658423259214371e-27)
(223.157129334967 0.5671806623842054 6.7094306454702e-27)
(225.5088056720785 0.5273117547198033 -1.356032611839524e-27)
(228.1330195954706 0.9009203847871544 -1.142062689380895e-27)
(229.9907894158092 0.7872396729573694 -1.902797593478906e-27)
(231.5025487276382 0.6426445483477102 -1.911270745814073e-27)
(232.711382427831 0.4987706970010477 -7.321893447663142e-28)
(233.6168769350025 0.3533911153107812 6.638744223272512e-28)
(234.209489984898 0.2115095401204925 1.049279467159568e-27)
(234.5439559118358 0.06293494464086459 5.615534813978301e-28)
(206.7489728947861 0.01762076337629706 -8.372358915275274e-26)
(206.763688974585 0.06291958757922037 -1.347577455675787e-25)
(206.8224688236754 0.1276877878378641 -2.038440082625626e-25)
(206.9118095659194 0.212240789427988 -2.720842394472252e-25)
(207.0655634605045 0.3345655285583975 -2.89577183683774e-25)
(207.3108517715503 0.5046468118880963 -2.162366634775302e-25)
(207.6394297359197 0.7435701814182453 1.893550488219754e-26)
(208.2490894057453 0.8528494019263846 6.246682524839733e-25)
(209.0174341817273 1.110538061237716 3.043962583255241e-25)
(210.0597522415146 1.465829798090999 -1.313087484359189e-25)
(211.4636855528425 1.879113553517817 -1.443770715658149e-25)
(213.273591099499 2.304082939758968 5.342450212183319e-24)
(215.4755434528812 2.672220452849502 3.964687730730103e-23)
(217.9802740494623 2.915661891772871 -2.295329769890795e-23)
(220.6376206769348 2.996770552155931 -1.558017978628657e-25)
(223.2829531305952 2.912509385817608 5.133958915605772e-26)
(225.7821114320979 2.689903877745724 6.337756850855331e-27)
(228.722750355447 2.782069991016682 2.344218371283363e-27)
(230.6481015120396 2.365717546722604 2.307256751943999e-28)
(232.1696960322959 1.911925768728178 -3.705773258811934e-27)
(233.3528107499666 1.463071574559505 -6.121003455405529e-27)
(234.2271645157047 1.019682721155499 -4.273986731732267e-27)
(234.7742379524594 0.6017892019010663 -7.254381294608949e-28)
(235.0858956302078 0.1896873046264 7.572590172187037e-28)
(206.6558183978908 0.02632082354235371 -3.331585046939016e-25)
(206.6473940590732 0.08855251670130625 -5.524102150105187e-25)
(206.6692746173607 0.1770888126374849 -6.486260097620149e-25)
(206.7035489256852 0.2986608422853812 -6.470715014670617e-25)
(206.7738380024975 0.4777580646737859 -6.001272849666021e-25)
(206.9003454559125 0.7349258017234086 -5.810562932437285e-25)
(207.0649769532472 1.097717572048186 -8.977459838830291e-25)
(207.6607733339061 1.396869259933772 -2.562934370501127e-24)
(208.2456577525275 1.868582736164393 4.354190517055881e-25)
(209.1108193946677 2.533554323749076 -8.804211057448088e-25)
(210.4003065368005 3.347768508840209 4.075926198046818e-24)
(212.2433864061772 4.234978131417694 9.893275696330913e-23)
(214.6884826158129 5.034739141375372 7.29284289892718e-22)
(217.5944945228972 5.550601132325292 -4.116108596523383e-22)
(220.7007564569617 5.695999200754288 -1.198667867009484e-24)
(223.7394397605757 5.496346392497114 1.119192196220138e-24)
(226.5265809927885 5.041285721847179 -7.792219601579593e-26)
(229.8489335624678 4.760284429392184 1.336237872684991e-26)
(231.806766312644 3.966936432968504 1.425826461161193e-26)
(233.3334703374854 3.169907608645357 9.789149753994625e-27)
(234.4826037015038 2.4050164869245 -1.183834794020281e-27)
(235.324215777062 1.670603885660918 -9.454439174935443e-27)
(235.8440981681357 0.9885437842853461 -8.131534226662526e-27)
(236.1477997587661 0.3178102302700501 -2.797292671383747e-27)
(206.5620768461877 0.02617780893138552 9.283192729678491e-26)
(206.5230150614894 0.08679372070876475 1.722236977718444e-25)
(206.4945674717358 0.1782043617227683 5.862089436864901e-25)
(206.4529880015939 0.3119480647152791 1.15589158677236e-24)
(206.40452414458 0.5150630099986746 1.430954346111989e-24)
(206.3648925806294 0.8116775887479181 1.245420646044786e-24)
(206.3122069416712 1.263193371428171 1.974369325501601e-24)
(206.7802051074499 1.717657924560444 1.020228157556066e-23)
(207.0610644339609 2.389311235502241 -1.020704974869981e-23)
(207.5757009934748 3.379049587720166 1.611775819921373e-23)
(208.5480695555964 4.69208377783229 4.649907783437594e-23)
(210.3046552949196 6.286052612663236 1.84855605737386e-21)
(213.2410424327253 7.888414102022569 1.351405952640221e-20)
(217.0108019263974 8.823807528021682 -7.251790848552428e-21)
(221.0187834355742 8.971119008752272 1.547162870539506e-23)
(224.7490875379704 8.501614393004862 1.351727357545108e-23)
(227.9718168388227 7.650595478558861 -3.40765151574934e-25)
(231.8266088832083 6.824600209065071 6.904607332241283e-27)
(233.7516259272074 5.573422803020354 1.83072520421682e-26)
(235.2188698249744 4.391359769805246 3.06549296630809e-26)
(236.2744934571002 3.296417079093296 2.785282756976223e-26)
(237.0191001922568 2.278092797293425 7.393143899459198e-27)
(237.4685831071227 1.343200795066667 -8.707926661302662e-27)
(237.7268346138013 0.4347080889898332 -8.110528141838916e-27)
(206.4886175816615 0.009278624366720568 1.613213467476606e-24)
(206.4142601414436 0.04345686909771745 2.896337690331101e-24)
(206.3334290198366 0.1093052863086642 3.834873785312484e-24)
(206.2025948272603 0.2204708362718241 4.281597346740631e-24)
(206.0184641717047 0.4034950244010604 3.913621060917451e-24)
(205.7885690363119 0.6809805775778182 2.578974077695806e-24)
(205.4751985171541 1.153684696869012 -3.547004978153015e-24)
(205.6998304807682 1.69279784192244 -4.139447932377273e-23)
(205.5391095219465 2.521047112026703 6.091843539745654e-23)
(205.4458804919686 3.777121712456514 -8.950311328287105e-23)
(205.6682365089178 5.61939359381681 8.076832819486777e-22)
(206.6733006384682 8.328556134895024 3.492244184897398e-20)
(210.545380300601 11.94939815059062 2.551187665090697e-19)
(216.4008688604253 13.39254624721885 -1.256072578105596e-19)
(222.1028218777271 13.24773033387649 1.095173627440738e-21)
(226.8383424254813 12.11648398193309 1.315457348769806e-22)
(230.5639502367343 10.56567123777782 -4.781928728491628e-24)
(234.9936942755722 8.901805348712301 -2.492222795003532e-27)
(236.6934462979581 7.083443835384108 -1.648031861936085e-26)
(237.929859308152 5.474297943214498 -1.96045984872353e-27)
(238.7526221722005 4.046689222728744 3.803498084227207e-26)
(239.2892284573807 2.770668376675583 4.695901087133512e-26)
(239.6041389008175 1.617517483484732 1.966430722724057e-26)
(239.7700815217525 0.5252093909591058 -1.670377682673866e-27)
(206.474005777296 -0.01081737084613399 1.935598637390931e-24)
(206.3636720995726 -0.02550505482335703 2.43447996126745e-24)
(206.2395224385439 -0.01492937841076321 5.315954066334144e-25)
(206.0227823910377 0.03379402444729983 -2.515436114454646e-24)
(205.7171465358143 0.1449995062247755 -3.726173318783279e-24)
(205.3031363606171 0.3374203879904797 4.197103196826223e-25)
(204.6970414548133 0.7103600294607152 1.990782259846283e-23)
(204.6057872435454 1.248167530239195 1.402014371819273e-22)
(203.8783170399011 2.049161064067815 -2.333622234708146e-22)
(202.9074788704274 3.337850471484362 2.261692226337128e-22)
(201.8428996590626 5.319456602803108 1.231520218365089e-20)
(200.7134944815585 9.8299175704591 6.575866834037778e-19)
(203.5545590970043 18.4019491778275 4.968619357814557e-18)
(217.1397350818183 20.68480753001782 -2.080649233861366e-18)
(225.2119910269907 18.94153320775971 3.039031183309774e-20)
(231.0477265248237 16.38434326675531 5.503600041677182e-22)
(235.0533995193599 13.66023275028484 -1.475757053801721e-23)
(239.7484535426086 10.79728994737913 -4.464819183329347e-25)
(240.8190331634225 8.265778938520109 -1.945328955479093e-27)
(241.5096937864942 6.233088356792713 -6.384721326811238e-26)
(241.8717022872875 4.518272229649901 -4.74320790818699e-26)
(242.0461631003759 3.057172607112718 2.98101208256195e-26)
(242.1323424435051 1.759846086080271 5.55940708115598e-26)
(242.1433463471178 0.5736986469592189 2.625451899577056e-26)
(206.5262082602158 -0.03916599158603647 -6.204590243356151e-24)
(206.3953593726523 -0.1202482944484564 -1.054256543367813e-23)
(206.2484238402793 -0.1841197865243384 -1.570576226413947e-23)
(205.9672845705813 -0.2306782663221623 -1.869282222498384e-23)
(205.575930411189 -0.236032361325551 -1.656759619606661e-23)
(205.0163146812912 -0.189503633421114 -1.618538957778437e-23)
(204.1933091977498 -0.03008711379743889 -5.575290042813696e-23)
(203.7678792906751 0.377308377103901 -4.0289721534839e-22)
(202.5088171845195 0.8828401930872526 7.239053844602292e-22)
(200.6038682077692 1.731840248638578 -7.367500552622737e-22)
(197.2834123409632 4.295350377899336 1.374452684328323e-19)
(206.4380158115727 13.121095364362 1.201143879382936e-16)
(185.1423520218416 30.72909829370313 9.983844386686923e-17)
(224.0996901934378 33.27307202330503 -3.133575483527718e-17)
(232.7553321139118 25.73325534596054 3.529310369375675e-19)
(239.2839880560417 20.86193301073694 -3.193195256487446e-21)
(242.5944115031113 16.31267964346573 7.108859362682818e-23)
(246.3911422871423 11.83405585305684 9.362880195822818e-26)
(246.2388510158204 8.660248949229722 -5.151100880812096e-25)
(245.8720591173961 6.337382172151789 -1.261665639372611e-25)
(245.4376341297702 4.46479670557537 -1.538543149923394e-25)
(245.0572763113412 2.954014202909808 -1.092730152384963e-25)
(244.7989913721752 1.667148789885356 4.007771008266505e-27)
(244.5833203951575 0.5492336216089364 3.854373058191302e-26)
(206.7148771306325 -0.07742986985096155 -1.343828424440602e-23)
(206.5631728125283 -0.2411609212897415 -1.784553004704786e-23)
(206.3998359564357 -0.3901114605683894 -1.280940611869286e-23)
(206.0814967439052 -0.5484636308058053 -4.099281288437356e-24)
(205.6524699126687 -0.6931697137174108 -6.223233649125953e-24)
(205.016210068831 -0.8302527399970715 -1.842354870183116e-23)
(204.1250813590314 -0.9517165268497301 9.915746797390772e-23)
(203.4668792574158 -0.7736563964613407 1.118166741167304e-21)
(201.8716343226494 -0.7240729938027151 -2.164429952449564e-21)
(199.1121190937673 -0.8294623720229833 3.665555711839155e-21)
(194.1607924780336 -2.777990832715886 1.920521666358434e-18)
(188.3185887052573 -14.06340019555557 -5.706489049854571e-16)
(104.5672159146371 72.58418356227233 4.187591918787432e-18)
(271.9210066679959 54.51959604302836 1.174258770794507e-16)
(253.7919450533869 33.53166239719555 1.319894513977782e-18)
(254.8433008532926 23.73274110317523 -2.783819761972527e-20)
(254.3968227477636 17.09484885751898 -1.516126787949363e-23)
(254.8118010994445 10.87326834804617 -3.06173142423486e-24)
(252.4175683003997 7.583259835430516 -2.355250568276013e-25)
(250.4599906442535 5.322449065466946 -2.204611809374669e-25)
(248.9456725778821 3.646195831572548 -7.496003943088294e-26)
(247.8683796216787 2.376347849678987 -1.85084643222116e-25)
(247.2102603180367 1.329463201778517 -1.444602394149501e-25)
(246.7553441478088 0.4569353402011233 -2.893075021597042e-26)
(207.0445759290099 -0.1198513369747795 9.163449492972608e-24)
(206.8882907289961 -0.3731896086813953 1.974638294808297e-23)
(206.7243539163454 -0.6156187153402172 3.749796185348237e-23)
(206.4049869083642 -0.8888109897639338 3.922828017314709e-23)
(205.9866117745478 -1.172945005034024 -7.920848834793439e-26)
(205.3575441576922 -1.495835241023934 -9.858230294512112e-23)
(204.5508412985077 -1.890598782099011 -5.802087315764415e-22)
(203.8301191476834 -1.991694633771008 -2.624395602000348e-21)
(202.3590754530753 -2.507438957690688 5.771262307523445e-21)
(200.611318415783 -3.689467031470461 -5.388457598779053e-20)
(199.4806072148786 -6.572002618925503 7.814270714345593e-18)
(200.9600814373214 -9.371534161335333 -6.940113066106674e-16)
(23.40891287580052 76.78199323065971 1.345329805887163e-19)
(333.4630037844207 32.27582443005864 6.703359074983075e-17)
(293.0782786765638 27.14772145775824 8.646825527707619e-18)
(278.4878179205313 19.24916972125686 -3.184120526231481e-19)
(269.2516172388269 13.01289771611739 4.907081344876481e-21)
(263.2258561857715 6.398973302886676 -6.739172544051459e-24)
(257.9372306992794 4.253523825064196 1.387086417620092e-24)
(254.2166617858715 2.858177684673321 6.408933626649129e-25)
(251.644702505453 1.878589048818625 3.5583309149501e-25)
(249.9367518787061 1.166245482293197 1.292469032361724e-25)
(248.946401222195 0.609359092545618 -1.263463680896015e-25)
(248.33261451989 0.2325811909597422 -1.178956365978338e-25)
(207.5134313655774 -0.1605765572409114 4.719711073137293e-23)
(207.3648766081434 -0.4984646925735397 6.549675361047682e-23)
(207.2195410569518 -0.8323329026213169 6.580174489817477e-23)
(206.9392159586603 -1.209666748459467 8.714907901766514e-23)
(206.5767751355142 -1.616679426146456 2.740663011829074e-22)
(206.0371858070832 -2.092498122314415 8.880532282878156e-22)
(205.4144377689391 -2.690838974718239 2.483763718497225e-21)
(204.7885834145544 -3.006889167104298 3.258270582830483e-21)
(203.7652241507763 -3.813503396833981 -1.388528405337572e-20)
(202.6463656214911 -4.918142785010458 9.19468374428059e-20)
(202.4276239669024 -7.128567757496741 4.358080151329931e-18)
(202.11191486672 -8.831385829196412 -3.766331067946304e-16)
(-13.8956802500824 65.64524126070893 -1.549598144546311e-18)
(364.3669680184624 -6.005962357012252 5.554200771837575e-17)
(321.7282446072456 5.184594747568526 1.300409007099951e-17)
(297.3002495957554 4.813129561752102 -5.481677051153545e-19)
(280.3627236726073 2.277409140585167 8.727516321640528e-21)
(266.7558243161106 -0.9481372952673403 -6.699100600459738e-23)
(260.2341482267135 -0.5195807789451452 -5.941167211544483e-25)
(255.692242622965 -0.2819739813448208 1.096458821297451e-24)
(252.6704489348678 -0.1674256149609201 5.493722526332541e-25)
(250.6611394660829 -0.1081427259799095 5.760550735877253e-25)
(249.4785296264303 -0.07585905879645949 2.782243765063785e-25)
(248.758857621723 0.01952464437867045 -3.829727981830658e-26)
(208.11119354895 -0.1957010208991811 1.302676304658869e-23)
(207.9778339728751 -0.6045178025494441 2.136875345170159e-24)
(207.8642342890573 -1.016357613813926 -1.789162580153161e-23)
(207.6479982763807 -1.47549904482822 5.829527078260482e-23)
(207.3713966496875 -1.97633748304673 2.298136445664945e-22)
(206.9734690927106 -2.554310312066665 -9.597897352883367e-23)
(206.5550807335778 -3.280555114900912 -2.296774884226318e-21)
(206.0728005246217 -3.732810474285752 6.253695930234845e-21)
(205.3756436798169 -4.6815483742665 1.031586570203518e-20)
(204.5529613858232 -5.841031781555159 -9.155572704547907e-20)
(204.850469835745 -7.861849374054645 -7.602022712706469e-19)
(205.0935649647555 -10.01960781091889 -8.173687029262786e-17)
(6.340376772343812 8.797186535450829 -5.269640136046895e-18)
(275.4400384431179 -22.15213561517873 6.118119152044275e-17)
(270.1613252742827 -23.73569849439149 1.085343402697156e-17)
(274.9405790740074 -16.75260140296619 -5.207982084901032e-19)
(273.0274150274257 -10.87344754282333 9.321017454278887e-21)
(262.1519904787567 -7.061107407551147 -5.684345089614062e-23)
(257.7835620441649 -4.775218559240503 -1.456209367146799e-23)
(254.1732226894568 -3.304312426385163 -3.797378603217476e-24)
(251.724991824192 -2.235573097956689 -1.157738119418256e-24)
(249.9964715766727 -1.422965108570966 -1.836246814133132e-25)
(248.9922562105961 -0.7954167936634551 4.374307215935049e-25)
(248.3929489410353 -0.2190416460476703 3.413010683960816e-25)
(208.8142061896202 -0.2228656543107722 -1.000356745958307e-22)
(208.7004652374774 -0.6845027163199321 -1.462702625823584e-22)
(208.6249025225786 -1.15440043179783 -1.953397369099584e-22)
(208.4803138234062 -1.668807900684266 -4.931604536742924e-22)
(208.2991070464073 -2.229498544894394 -1.980771803698731e-21)
(208.0539516366384 -2.860293431283922 -6.098358413592556e-21)
(207.8367313061038 -3.649697282969087 -1.243432232809991e-20)
(207.5246860075625 -4.210210473888894 -4.143249028489205e-20)
(207.1494302078272 -5.2287356756198 6.833652107996214e-20)
(206.8000868152422 -6.488460106743511 -1.413233239643362e-19)
(207.5782168845643 -8.132762920561555 2.676661555712647e-18)
(209.7100245162674 -12.05819657360172 1.399343756327199e-16)
(84.55192503919854 -16.96953068985325 -2.427800386223329e-17)
(275.9805035668864 -28.74876078690052 6.319624297310486e-17)
(260.0964392272691 -22.79240648229292 8.061322410863892e-18)
(259.5443865131939 -18.73445715281835 -4.696762323914282e-19)
(258.3847092866667 -14.48097736301831 1.001714357033204e-20)
(252.9055889041276 -10.38378241789722 7.720377138634805e-23)
(252.2407011925337 -7.489673330970444 2.126999878317816e-23)
(250.3130292350567 -5.355650066544393 6.444598402814814e-25)
(248.8557533628103 -3.760969832555221 -1.3261919584548e-24)
(247.7033431141742 -2.470592401185498 -1.033226003226709e-24)
(246.995457686683 -1.41218608395516 -4.893220390062575e-25)
(246.5463270205219 -0.4391223740720597 1.597979152757572e-25)
(209.5919462408239 -0.2413477856071292 -9.38524836733418e-23)
(209.4991727212785 -0.7365159503975677 -1.092653568436359e-22)
(209.4616709139901 -1.24280348868187 -1.666127209038242e-22)
(209.3851696457922 -1.787421830779463 -5.804724270834255e-22)
(209.2950675520577 -2.378179682319858 -6.562188289992316e-22)
(209.1909485030557 -3.029812252126752 5.254412608492802e-21)
(209.1607957925643 -3.811652605863899 3.012299713084296e-20)
(209.0127253161412 -4.439585194017174 7.85023536275306e-20)
(208.9813499473248 -5.430499517508218 -1.911028616515837e-19)
(209.2513394103351 -6.633082822847603 9.82306566264138e-19)
(212.0277357786339 -7.936232256901036 -1.411439566868902e-17)
(219.1996995547925 -13.82598456078644 7.990945012942681e-17)
(225.1785790688821 -30.94962814766668 -1.477767652045661e-16)
(250.8954023036256 -27.48782280080976 6.343748221704051e-17)
(248.026717162361 -23.05721205987917 5.292190358455082e-18)
(248.8170151072552 -18.81249672702129 -3.902037199297615e-19)
(248.8781291994168 -15.05214809586292 6.632487358245698e-21)
(246.2265721400383 -11.35617380033808 -3.384969599461902e-22)
(246.2346508669965 -8.618584449085651 1.489016161939737e-23)
(245.8090627111461 -6.46296388442665 1.353821674129312e-23)
(245.2410746969394 -4.647351743744955 2.34919109716149e-24)
(244.687346365042 -3.112049730716189 6.306005181362527e-25)
(244.3271095204298 -1.801121462196793 -4.076038262942539e-25)
(244.0879059943877 -0.5787462605531727 -6.054985310922655e-25)
(210.4128763175165 -0.2511815168365428 1.302547703352749e-22)
(210.3394228959571 -0.7620882303617235 1.941313642053175e-22)
(210.3358340402013 -1.285986215101376 3.030907846273522e-22)
(210.3181107462989 -1.841646935621728 1.232801332034556e-21)
(210.3074645362868 -2.43641561551067 6.17651049222442e-21)
(210.3179383015483 -3.077189108736992 1.756853599788324e-20)
(210.4251006863364 -3.800922236308922 1.398478542338726e-20)
(210.4350310402864 -4.438331364366434 7.343005303612371e-21)
(210.6544198296917 -5.325860500226284 -4.617828647651016e-20)
(211.0787088170014 -6.301138911695354 7.996926140000714e-19)
(213.3367335299664 -7.48425721647367 -2.331827987947309e-17)
(211.7266853323486 -11.24448048747857 -1.05204181315954e-16)
(217.7419189821728 -33.59436036174164 -1.949904719912783e-16)
(240.2124031355715 -27.32057219266025 5.991471977544439e-17)
(238.4070286925457 -21.91902091182369 2.85282995161193e-18)
(240.2889237237654 -17.86135274229596 -2.845677577303012e-19)
(241.3650325099118 -14.53102286051616 1.055842108511417e-20)
(240.595913656603 -11.14921157726513 4.318661668532635e-23)
(241.2551792971155 -8.731307697237032 -9.623820002354264e-23)
(241.4892474893578 -6.765693828506709 -2.382928720702238e-24)
(241.5457354037277 -4.982747394292873 1.58147144668131e-24)
(241.4830310218053 -3.401849565062074 -5.690729995366948e-27)
(241.4080266295378 -1.978433343490534 9.533093459219277e-25)
(241.3379576891917 -0.6446710441567033 8.963369312302198e-26)
(211.2471465727333 -0.2542120948631202 2.170799644952896e-22)
(211.1886779009768 -0.766838481528954 2.484273207592084e-22)
(211.2140344618934 -1.291465646622935 4.457629698151925e-22)
(211.2440026506867 -1.83990557421754 1.734550538488116e-21)
(211.2959946858863 -2.417320039174497 2.302472506515193e-21)
(211.3883730058848 -3.027347316927986 -1.621559501672242e-20)
(211.5824878651629 -3.680101673403936 -9.163525339157646e-20)
(211.7136399359927 -4.294059185555578 -2.496926917315888e-19)
(212.0392411217557 -5.070564598185009 6.150038452334063e-19)
(212.5763248007302 -5.866582306369094 3.175580916003801e-19)
(215.4847853241437 -6.640080508858113 -3.038297864857886e-17)
(207.3773212674741 -5.364973712187565 -5.624067847154878e-17)
(211.2851278350159 -24.37210150988716 -1.989063188948195e-16)
(229.47608389062 -21.9743593812553 5.480021668892703e-17)
(230.6033222341461 -18.71256208976325 9.06593140987227e-19)
(233.6711055832347 -15.87378732263819 -1.694053682077767e-19)
(235.5391414063035 -13.27860437744343 1.301150763769908e-21)
(235.9770952455275 -10.27736460398331 5.491481582559682e-22)
(237.0428210917505 -8.270756339648225 -3.163448800541576e-23)
(237.6906323681451 -6.538308172983654 -2.011082649134263e-23)
(238.1033947610811 -4.907239833999408 2.959489029288946e-24)
(238.3443949511429 -3.404460722069849 -1.78946171575134e-24)
(238.4727384447251 -1.992931136385479 -1.238752955875549e-24)
(238.5353421932452 -0.6564854078260551 1.038959572369508e-24)
(212.0731485181139 -0.2512092519766624 -1.133633490158474e-22)
(212.0251027235621 -0.7534252922625483 -1.723212143391826e-22)
(212.0742908297446 -1.265140090681807 -1.340441651637959e-22)
(212.1409133759266 -1.793121638872273 -1.07794906053674e-21)
(212.2378267027999 -2.340603139346413 -1.043193065797838e-20)
(212.3835985639274 -2.909421844117665 -3.699063187099172e-20)
(212.6352756378151 -3.49616469868783 -1.600353411885053e-20)
(212.8604741683894 -4.076378726625343 1.658652281191409e-19)
(213.225630924377 -4.762986822554237 -1.600057670810151e-19)
(213.708560962475 -5.465606505053926 2.035735005674471e-18)
(216.4347044968093 -6.28701892620677 -3.501273887379955e-17)
(205.0048715922477 -5.353756576142325 -1.95890382751144e-17)
(214.9867743275961 -17.08715725555781 -1.886883311704474e-16)
(225.4044259340222 -16.58966051160805 5.024261054137101e-17)
(226.1105263847092 -15.05287346389014 -1.503370389353036e-19)
(229.1052617380352 -13.35969438005594 -1.279941790997946e-19)
(231.1789227865812 -11.57232198146342 -1.539559267434471e-21)
(232.363202108111 -9.081493873635901 -3.367147405536379e-22)
(233.600276935039 -7.490472598530372 1.094609577496883e-22)
(234.4597201179645 -6.007705591161349 -2.359934258311729e-23)
(235.0598126392214 -4.577563405237365 -3.341490510705368e-26)
(235.4647583419329 -3.214767554286237 6.83217842975625e-24)
(235.7029319563707 -1.895656678913521 -2.391561162771687e-24)
(235.8359167389401 -0.6297618067529553 -1.722532688989702e-24)
(212.877904194421 -0.243821780621314 -3.270639776357866e-22)
(212.8354387635712 -0.7252713438226464 -2.385011249293872e-22)
(212.9019234826366 -1.214437816145363 -2.279185232208419e-22)
(212.9935348554201 -1.713592093815785 -2.534468626682876e-21)
(213.1196999457903 -2.224599732579754 -8.013905282577173e-21)
(213.2990494302746 -2.747708826339067 1.494942442624322e-20)
(213.5885421116412 -3.275290855285888 1.692294839004714e-19)
(213.8953837637413 -3.81596985901292 5.120413818132427e-19)
(214.2956349066251 -4.43531058755138 -1.809232611553901e-18)
(214.8128064105989 -5.074592133338911 4.32373274684617e-18)
(217.8073986568854 -5.897552446530197 -3.816808113291207e-17)
(203.1033735371519 -5.087208421877401 1.017671021716488e-17)
(217.8666024105989 -13.16024525234938 -1.765582190018984e-16)
(224.0290732110744 -12.71530765336583 4.547785443493495e-17)
(223.7066246890847 -11.97788111018595 -6.733424989249987e-19)
(226.2089632143973 -10.97751387107065 -1.589869911740302e-19)
(228.0885337822277 -9.77269345970608 1.17094280109675e-20)
(229.6081555810017 -7.790004590191675 -5.179347167137733e-22)
(230.8553666185878 -6.564866554208487 1.20480150817073e-22)
(231.7803211426051 -5.333833894115199 1.199516869951903e-23)
(232.4509673021075 -4.115250897956884 -2.941151396343417e-23)
(232.9264423568939 -2.918435674425754 4.715652340411456e-24)
(233.2127586337979 -1.732754351303823 6.799674899516569e-24)
(233.3793181615668 -0.5808395860737215 -2.515727526859945e-24)
(213.6481844945611 -0.2337952302123291 1.095019276128811e-22)
(213.6069330130788 -0.6863858447969053 3.046926984880819e-22)
(213.6845221986017 -1.14666404203356 4.29537457381054e-23)
(213.7917212884502 -1.612029564535494 -1.150887841784577e-21)
(213.9359160509222 -2.083301997881704 6.471804558862108e-21)
(214.1356587661773 -2.559646334375868 5.596724774255407e-20)
(214.4484655811881 -3.031653646110934 8.726529828541623e-20)
(214.8327848228399 -3.532050071033312 -2.599992921121295e-19)
(215.2617578525434 -4.084855591926705 -6.687195745200419e-19)
(215.7968676560573 -4.647157458934475 2.426603020009545e-18)
(219.0500161361171 -5.386197273479564 -3.635815360684198e-17)
(201.5813462350488 -4.608841240598299 3.462419221464923e-17)
(219.7386331523142 -10.45351231655226 -1.64629943544444e-16)
(223.3148224904816 -9.984549805613993 4.206203492229784e-17)
(222.4497631253644 -9.545957935394577 -9.173048925922636e-19)
(224.3684990811549 -8.954624913628823 -1.300857690850976e-19)
(225.9508805393668 -8.105639314500761 8.723225292226574e-21)
(227.5492577048323 -6.562584912553852 -1.18592010784698e-22)
(228.7058065115966 -5.62553796827529 -5.963431543509701e-23)
(229.5977127284257 -4.624357017135347 1.081453636745205e-22)
(230.2604220330771 -3.60480616664984 -5.446709180566248e-24)
(230.7449704803323 -2.576445921101507 -2.838272975768588e-23)
(231.0407302272621 -1.537851363473832 6.711403998954631e-24)
(231.2184693646293 -0.5228131734268949 6.001784336036758e-24)
(214.3736518219637 -0.2217988147402324 4.97257636006117e-22)
(214.330388345794 -0.6405871208251609 2.124185145937742e-22)
(214.4148175642391 -1.067987362671755 -7.665915149143873e-22)
(214.5307617202726 -1.496862669586265 4.792367125219524e-23)
(214.6845565814717 -1.927294508920022 1.212071370662522e-20)
(214.8947266374669 -2.357728936234439 2.114924449339676e-20)
(215.2195275076618 -2.777335704253428 -1.62697144156987e-19)
(215.6773455132519 -3.23903653770962 -8.861827966428825e-19)
(216.1143272502675 -3.727038590580011 2.833183435724284e-18)
(216.6224100117655 -4.204843876318501 -3.702645839132779e-18)
(219.9467633851613 -4.824064761887311 -3.236116186131482e-17)
(200.1069025813591 -4.140900600060365 5.426720820105678e-17)
(220.9009088520833 -8.388843698553645 -1.543441055520886e-16)
(222.8292264863677 -8.030411730637509 3.995008681180884e-17)
(221.7493759558207 -7.682324600486555 -1.191481185662467e-18)
(223.187630676958 -7.293758467074412 -7.233000926078749e-20)
(224.458146101352 -6.671486328371515 -4.765802958037958e-22)
(226.0129486791045 -5.47123720766881 4.275510225075912e-22)
(227.0289283230389 -4.751856242335339 -3.491175656611217e-22)
(227.8375186150265 -3.94435009808912 -1.049842840992341e-23)
(228.4479492320278 -3.10101251798485 1.009200639102543e-22)
(228.9041044571699 -2.230507522023938 -1.493801183295717e-23)
(229.1838691414123 -1.336833779983853 -2.091261119054631e-23)
(229.3539374318601 -0.4616957067306018 7.181282166620054e-24)
(215.0486488141641 -0.2080481342966655 -6.32627826734918e-23)
(215.0002102068575 -0.5909005371193274 -7.174998096983766e-22)
(215.0888280902594 -0.983327435715972 -1.133485557971372e-21)
(215.2085555818565 -1.374655352418362 2.049071958757583e-21)
(215.3654257032479 -1.764542855753773 8.105333280184848e-21)
(215.5783989839914 -2.150713084018621 -3.096304124081236e-20)
(215.9068368864794 -2.520803880955737 -2.074066965845838e-19)
(216.4365745458482 -2.945929331789842 -1.953875264757037e-19)
(216.8616073164691 -3.375525189192955 3.663018802143727e-18)
(217.3398110561723 -3.799426725589448 -8.373157142237182e-18)
(220.58178114635 -4.365289437883121 -3.121499222752701e-17)
(198.9934769971001 -3.74055351948908 7.137946471942494e-17)
(221.9434524359176 -6.701242521209045 -1.473703853749097e-16)
(222.511171552358 -6.463661853668868 3.876594809113957e-17)
(221.2818293352771 -6.244697574484673 -1.56641938958695e-18)
(222.3801412881022 -5.955661061321798 -3.775509986455079e-20)
(223.3713013075156 -5.484643098163214 -1.906066457378246e-21)
(224.8496613341996 -4.536921963785993 7.900556490330624e-22)
(225.7154315153427 -3.980288750693554 1.330178376176498e-22)
(226.4221245785687 -3.32888885678458 -3.186074167065451e-22)