/*--------------------------------*- C++ -*----------------------------------*\
| =========                 |                                                 |
| \\      /  F ield         | OpenFOAM: The Open Source CFD Toolbox           |
|  \\    /   O peration     | Version:  v1912                                 |
|   \\  /    A nd           | Website:  www.openfoam.com                      |
|    \\/     M anipulation  |                                                 |
\*---------------------------------------------------------------------------*/
FoamFile
{
    version     2.0;
    format      ascii;
    class       volScalarField;
    location    "1000";
    object      Ma;
}
// * * * * * * * * * * * * * * * * * * * * * * * * * * * * * * * * * * * * * //

dimensions      [0 0 0 0 0 0 0];


internalField   nonuniform List<scalar> 
5975
(
1.251727349389313
1.262901774387276
1.265474129104328
1.251574040101775
1.262034220480715
1.235284289399771
1.241230565799276
1.245287252322693
1.21828621527565
1.227410682370528
1.239051587943137
1.244457333323269
1.20743299231344
1.211558553109214
1.220859803570109
1.240963847988743
1.243222322076253
1.190547231407436
1.201430680061301
1.209193137833801
1.22491025788577
1.231002939110095
1.231887472125222
1.173562092066759
1.187384352645181
1.198332610840513
1.217436971521084
1.226891122625623
1.146304309373771
1.17096290602067
1.185404144703391
1.203861421554646
1.216900800280518
1.227449507635245
1.220329437653517
1.136104411300525
1.141672058818058
1.173478800151095
1.179314881624067
1.195788911054157
1.209097981352028
1.218585889492125
1.215872926249812
1.123767779274951
1.132353323633957
1.164862256289721
1.182732028911726
1.198873303177105
1.209978979503928
1.212735898487657
1.110301613109426
1.121230409750592
1.133551168758642
1.16638287206207
1.186837861603871
1.195811162830028
1.204300192879812
1.204676082151268
1.104423250609892
1.105480079523482
1.120131396706395
1.144625643342576
1.158034140550647
1.181000576648691
1.198628977713037
1.203906710779557
1.198188473217022
1.100587766085595
1.100748222821871
1.110969164263402
1.103151388857433
1.132828422672719
1.144274398748817
1.164663542224605
1.182344102621434
1.192132090814151
1.195337110211931
1.192784028404811
1.106429208341776
1.097071551701551
1.099532536204484
1.111589604599124
1.105752869778127
1.129848523912528
1.157865641729687
1.173385061042005
1.184052142049035
1.184876576573749
1.119046214955467
1.101964718690117
1.097330774924874
1.095816191926034
1.100540153356135
1.11849149785071
1.106065681421405
1.140433613414265
1.162739975640525
1.174321376513631
1.183592747272147
1.176971992325048
1.177100668454313
1.12538466547849
1.117877077996481
1.095121461928415
1.103401475763769
1.094493436544668
1.098848817659864
1.120163157559144
1.112115864581433
1.136693112436142
1.152967697172082
1.173246040473516
1.167446379993722
1.169433853432809
1.148389917487216
1.126626464436269
1.115879175597972
1.090203987481338
1.09421350801687
1.09341501764846
1.102679915984491
1.112672162537336
1.134271159954059
1.159674695224024
1.166977740226744
1.159350394862477
1.157962806834231
1.151624684894723
1.127791642479041
1.098181997522891
1.090949476830149
1.087887248359947
1.089780061964047
1.100228527508117
1.122480698664181
1.144601533288256
1.152814274569885
1.158958073639638
1.155682954573322
1.159688192139218
1.162201154037678
1.159111882625761
1.142122861392557
1.154150154799273
1.113920598779151
1.097305877911788
1.088598482684565
1.085669573538523
1.089487926999748
1.091775315917053
1.111370332022027
1.122058482847528
1.137641937213784
1.152752782439884
1.160342403151296
1.154828336441794
1.160697220198765
1.160029337433492
1.159355594741702
1.136490341389431
1.142187631921477
1.122901012001748
1.104818830227677
1.090260406275647
1.085853128763661
1.087039784815844
1.091422425626114
1.111431455461705
1.139088360768582
1.14509794336926
1.148773166853535
1.146793085540649
1.161274893177426
1.157549483515812
1.160340951026335
1.156719257309939
1.150112146116922
1.142485367547192
1.115579874434535
1.10148629990398
1.089521693836813
1.086281094540272
1.087395646628018
1.100033217547316
1.124951535069874
1.137298846632543
1.146944704515711
1.143690104739566
1.167805626146335
1.162894207833536
1.155770757020443
1.154696867359477
1.153061809779971
1.147504600938852
1.131073411104701
1.11904753827228
1.106649695067279
1.095034495682184
1.085547465396375
1.087545631242099
1.100161060092081
1.124775123907471
1.139253879097974
1.141363709325501
1.142478930427437
1.178867853775789
1.177686383457271
1.167745534505712
1.152530625457965
1.148906311649662
1.139879454935125
1.129152830337342
1.109346399984485
1.102446863047511
1.092527678240686
1.091453599728313
1.108582883487119
1.12116066689287
1.13491182994469
1.142811247986032
1.138816284063099
1.139573707161406
1.175842639533676
1.184061904938957
1.184509195593745
1.166829240394696
1.146881917612762
1.156365009640531
1.13792947233679
1.119006096762886
1.1094843328908
1.106987613692092
1.09659674878046
1.096308954882301
1.10835771951248
1.128384467254427
1.142705660286539
1.140029949419372
1.141892851029431
1.173722433513754
1.174821381097294
1.185008739266648
1.185395716873417
1.185477734506195
1.179736426890736
1.145719006831149
1.154391299730167
1.127829144670394
1.118457186564474
1.105698519888304
1.107165816842537
1.097444890240232
1.101278048297352
1.117985761920839
1.127623234377872
1.146256174264507
1.139523632475653
1.135691977980852
1.146827354415582
1.171055385601238
1.169866419930858
1.174658654289102
1.180098484389948
1.188137903834453
1.188876171931204
1.18963721584741
1.179192902458925
1.135972078823051
1.158148217974216
1.126265258323037
1.108551011246622
1.104343773532723
1.104820746752013
1.10737735814666
1.1082054914759
1.118088079282851
1.150790228105178
1.147550399432311
1.136846816526983
1.149556311496564
1.170532480409616
1.167896499853871
1.170946889173238
1.168878820441377
1.18026253652035
1.188639364419325
1.189745494896401
1.173816886390538
1.186734994707761
1.13284564466579
1.148257398544785
1.111591636488087
1.107130002385434
1.107250384602406
1.1032543035425
1.104051357656184
1.108972314044105
1.124692655974863
1.151091280857718
1.15112568390771
1.155346456178403
1.144108970437762
1.177287394731651
1.170146503766232
1.165348221998076
1.170533603550766
1.166394153589258
1.180961879681823
1.190255149679173
1.18375652246291
1.178576078130002
1.185782661435669
1.118096201611293
1.151197733322916
1.108827982822703
1.100667106667165
1.109386853279447
1.104407337004426
1.119901559239151
1.150510134290871
1.153317684609859
1.157928011445815
1.155128980752957
1.139733720149824
1.216261539342606
1.186504820071893
1.171751616962948
1.166442570271274
1.16118846991586
1.173923314998514
1.164231904346928
1.177916368207272
1.189875412684531
1.183872870803183
1.17183673949738
1.187919595292222
1.113992345800938
1.13454593064272
1.096609025696797
1.096646698790262
1.115197973825099
1.099641235154837
1.125467303889071
1.146793184585654
1.154161556189756
1.158154196428831
1.155687002748315
1.13870019917468
1.251852741724913
1.187901581956097
1.166036347406995
1.163281816570395
1.159007427303355
1.168956285799931
1.176667933617424
1.179640937653962
1.176923742152938
1.182895894567016
1.097924880699151
1.142196256709332
1.093279934702474
1.094281563443989
1.11521434465801
1.101340438824886
1.141692934783292
1.151937387906616
1.159751826848959
1.153565076493284
1.124677602218969
1.267388775428998
1.179171937466621
1.162739113022335
1.156676242990139
1.159569324063465
1.167517966684911
1.16923068797148
1.176883333289943
1.167322833737132
1.179610372033057
1.096085346961354
1.125487927513878
1.088004758088066
1.087815603769797
1.095249657337496
1.146428357190471
1.130513072948809
1.153947160948753
1.161201427704563
1.151045493033418
1.120312660994277
1.262664541909469
1.267765377537297
1.20385662506473
1.153345912220527
1.152303500857006
1.153714953104286
1.162276763833707
1.166834648508629
1.167534519286837
1.168616075651636
1.174067464681365
1.109980302981452
1.087158305657497
1.136258262960283
1.086238992164368
1.104039336972084
1.139104629290317
1.127656856094672
1.14583352505268
1.148124141800896
1.141833632562016
1.270450376527267
1.269892673128192
1.181558684928643
1.163132258162373
1.158668733535041
1.163095239469723
1.166206378827463
1.165238696895706
1.166222823942817
1.109350994760947
1.084872507304935
1.137711029343337
1.084005898697625
1.099164610665516
1.116011404661434
1.145899373078213
1.147008984782294
1.147984565517051
1.132912307149994
1.271756668925655
1.270062089633852
1.188002770780309
1.162675181092528
1.160889816594037
1.163112993796106
1.165416086307516
1.161939740812596
1.098044886624607
1.125351185437961
1.082519746888039
1.088731816472653
1.13997393315319
1.088456484439126
1.114477463515911
1.141351119828174
1.149886696404947
1.149534017415488
1.149517531545136
1.129255759944453
1.273646563499501
1.271029976927505
1.25128147834631
1.216005175305256
1.169674836884197
1.166870759689472
1.162132152339755
1.163306643183567
1.157580104601358
1.10046504134346
1.124554232066725
1.086582127326506
1.137571241750121
1.091641165433119
1.102309070487967
1.148078613937595
1.162792528099731
1.151309178332351
1.154369411247056
1.137830602560786
1.275401741090331
1.270655923764807
1.249092230510964
1.201013193903213
1.170947153470493
1.164293728044666
1.163351279879927
1.163002670810252
1.153060269739185
1.122914774394366
1.086702092636653
1.129535250629386
1.135470630186118
1.118215656529812
1.161696349775913
1.171246789170408
1.162150765912629
1.168439550705706
1.158057684861857
1.13917387135259
1.260504672479544
1.283366026984868
1.285043321485359
1.230691268630319
1.238506239824008
1.177130360253805
1.164963109541534
1.162920644237918
1.15638778801345
1.1231143041022
1.125068628148947
1.126386490499509
1.121846376612391
1.172243368169254
1.192550194273416
1.195798474939547
1.193089631720659
1.154705049779415
1.256254716152459
1.281816303896472
1.285592976908245
1.213794667361326
1.231626437291498
1.239243067783437
1.176240867408214
1.161887996986882
1.1609815057158
1.152228657129626
1.132083092488319
1.121430305103737
1.127053432358511
1.126503740502231
1.142217373011014
1.184437995215867
1.164828567158487
1.193499665188004
1.187092504793873
1.195100284422418
1.191356767412485
1.265427460136729
1.242506664395998
1.287742034707864
1.28621017758143
1.222719205863384
1.229902331741257
1.166235090201063
1.164710623962133
1.161315204417604
1.142756395183843
1.137248640844694
1.117286781194118
1.122404747630711
1.116316616710718
1.16853585330482
1.160363225465769
1.186203353428139
1.177770141882963
1.186379655105382
1.179644976991465
1.259488079782402
1.239107104719762
1.278258270579657
1.295252064692261
1.26276982151735
1.211959382158709
1.225246572043255
1.16658236130042
1.163101275686211
1.16189358851403
1.145542143892627
1.142430976980385
1.113776206257552
1.127569663471037
1.11782553143477
1.15924279034653
1.178677200847489
1.166430676041921
1.177862744679003
1.169710238318266
1.244322679554144
1.267268326629138
1.227705816056765
1.28065119329733
1.290943466714946
1.25704182807417
1.169705351424747
1.214927233123874
1.161899972909935
1.13035197333927
1.111935609359965
1.120777954870486
1.111454642567038
1.146453705139321
1.168920866057551
1.154522138230556
1.16909582052125
1.169742601661194
1.165890512417686
1.238654745185367
1.259432158848475
1.222007096496738
1.29013787630001
1.272309456070822
1.222468293413193
1.156767321897205
1.209434945576334
1.135654138111585
1.11145855178159
1.12729477863791
1.111265043366505
1.164573162770708
1.153908355586377
1.164270819910404
1.163766125743291
1.163315975014259
1.226625852506946
1.245447002994131
1.264903147511554
1.212955696661264
1.274460344065148
1.267389166963098
1.158341244758059
1.231922513766161
1.138511216244738
1.199507555018736
1.129679263584029
1.111479161501316
1.121826295891815
1.109566684848459
1.112593129692846
1.157403067972277
1.14563408919393
1.160802105610299
1.162003004391153
1.162542422927509
1.221250465194304
1.239143818255698
1.255070165807366
1.206901580487539
1.269496221473563
1.263196729673645
1.254128553574464
1.129391178253125
1.200552198241866
1.123780696573305
1.197158062043692
1.125533116204686
1.108334995960443
1.112638512818464
1.155716718613754
1.145862394736798
1.16088960248554
1.161086020056029
1.162405667848662
1.160955323587914
1.21028704614513
1.227261207961601
1.244400331331875
1.249276708494141
1.246765525416068
1.247430655396732
1.121438900959773
1.137900226861543
1.190375656921185
1.115429293197051
1.106150932117343
1.106415524766934
1.149494431097029
1.135151844307048
1.156956876524645
1.161320962239544
1.161640546019654
1.159613291293526
1.203988377752503
1.221500001498288
1.236426930958512
1.230150423931743
1.235982339031308
1.237586682356751
1.232386370283539
1.104470342760731
1.123279552324924
1.180318315061377
1.194306561453158
1.117933049167036
1.106236770755608
1.135171581876552
1.151860796056704
1.155401527749603
1.160619283066031
1.160941703334458
1.161083824446107
1.210318953863506
1.225795065537849
1.214195499814628
1.221732493563218
1.220170586745871
1.221530167395507
1.09955728802542
1.102191984071033
1.153531731240571
1.178778977667514
1.189013415995263
1.104088799471148
1.125731200715526
1.146725166218057
1.152369479495495
1.158917823666098
1.159257968581118
1.160999893278425
1.206019033967191
1.219766650639137
1.215845380211752
1.222974341840807
1.209570069015772
1.216329226913293
1.213218108787199
1.108465915577612
1.137779236184237
1.170261760401439
1.190775826151397
1.109843412409917
1.135300059155262
1.144859515577137
1.156727268078346
1.158935204890869
1.159749345488791
1.158228234865795
1.159729629455843
1.197376467332942
1.211288995232828
1.217770741966484
1.215798037248947
1.226457025789622
1.192466667701218
1.209672462516524
1.196740891341499
1.116149983806239
1.154434863617461
1.161971825692148
1.174095383623703
1.184717058479805
1.129184129086118
1.148517965007408
1.154450176950569
1.159560697557596
1.161698005135631
1.159191014707398
1.163140593823138
1.195726112468514
1.203498662476529
1.204564886772
1.197806459634143
1.238602867003372
1.225668727672229
1.195639688856643
1.184822656147069
1.178958387643769
1.195398217956132
1.137035353015408
1.156164606202062
1.16831361524686
1.188589248744441
1.158782819674572
1.159562010629107
1.183212642442009
1.163316825346264
1.179419726110297
1.197615260133905
1.203046196238334
1.208101845238404
1.248402758228462
1.229896129843357
1.19400510070064
1.182765227050075
1.165640720715203
1.18505885366909
1.148508072888019
1.159840473659178
1.17518893987702
1.186744164612246
1.197291681287155
1.19263544467092
1.208956578574309
1.200035072184864
1.215368019441453
1.191669322718824
1.194784941693004
1.255240431012629
1.211231752665102
1.254090908481232
1.178118497549103
1.157783651013492
1.166000161954781
1.170634918045549
1.143799120696317
1.155163662527156
1.170090697557062
1.218216606041844
1.264174533720085
1.24672923069532
1.269350953893485
1.19099310658296
1.189824467465797
1.216916992450686
1.261653135050141
1.187722363096438
1.142878492774534
1.164349019190495
1.165058000488374
1.146620633235659
1.137875026702768
1.160526105350604
1.17445422556124
1.26550387227338
1.275084509068139
1.276415633373748
1.272491932311726
1.242410387877645
1.194455074562472
1.171107402352796
1.207044377375873
1.243247439544283
1.279333064457081
1.182535093784403
1.132851888128633
1.155194079351844
1.152401185199208
1.141150269086803
1.135964904726821
1.156659850423325
1.170494646765158
1.286313520350651
1.290838073146017
1.289041571633549
1.180152787295991
1.166255875339365
1.227138327456376
1.247669259046233
1.283231961561477
1.196582418959101
1.127787998758857
1.161455572112791
1.148256251905075
1.142749175749154
1.132303036091366
1.150687905053847
1.161008274685204
1.170437205148864
1.287888367090026
1.291831532842645
1.289904789537539
1.224467910166909
1.265953229969315
1.1901379659116
1.123475622705501
1.155311328010976
1.141319672707561
1.136304905148851
1.136681354140478
1.134216259474922
1.150092009609448
1.158117490278784
1.16342528609403
1.285361665291547
1.289044892241541
1.293465711630023
1.243885984187013
1.26467282827188
1.214869681170757
1.138924786773581
1.112601100334955
1.176978356639613
1.113730949220778
1.158517847891123
1.142548285347235
1.14205996696916
1.13744863282665
1.153111811394254
1.159047411437986
1.270264778624252
1.28954681871108
1.294229420391857
1.232330626776973
1.213150329135869
1.16635717886663
1.137543081507989
1.110744828591351
1.201868137505786
1.11055963034751
1.147065193856984
1.143602914299202
1.154012386331225
1.142679431943365
1.153193695586953
1.155349007264223
1.2552603098772
1.272026760470159
1.293287324839089
1.279688626812937
1.241171406907509
1.230627492235045
1.190912932069353
1.165228352039757
1.109310918961931
1.205640544021775
1.101295663202018
1.149704443433056
1.145958637734589
1.158363744754421
1.158325238919998
1.148572424546349
1.149358105192736
1.154903995566599
1.258215106382358
1.270525330402663
1.271138142360961
1.266914889278044
1.232278186818883
1.183553221993708
1.158322969389503
1.089706183293301
1.137625171345967
1.217843326568007
1.119249540675808
1.083057225885334
1.141157872548444
1.146438034353992
1.16496542819434
1.155215754608906
1.166825811743057
1.148452233689606
1.149543323112706
1.152473644649717
1.244285863629864
1.256856045811599
1.267921627734088
1.257098729380165
1.188936663014793
1.176017135972255
1.088531749524287
1.138900279980386
1.219151056696751
1.104742668058775
1.080208885955279
1.147169809266965
1.146013326716204
1.162413054213654
1.158092529803266
1.168124609224618
1.151260559843728
1.148854510052875
1.245091619053575
1.253114558582702
1.249487432851304
1.198176452046607
1.165311286173438
1.088825331804159
1.123904555245973
1.227634663447963
1.20757920738807
1.075959149606265
1.119030627934896
1.138574100236228
1.14526779808962
1.162101893325838
1.165812633970088
1.169336306766448
1.168894082221655
1.151242116900472
1.143431188269262
1.237312939763462
1.24846284360528
1.246839578296416
1.239856523082367
1.19501981992571
1.174793105073212
1.080553772124622
1.130570734113891
1.220097623048818
1.21108375311366
1.073391873717356
1.106727460775307
1.14719575356234
1.143402933600041
1.165094207709593
1.147383667332412
1.164697914472095
1.171285682438297
1.171072254561856
1.157868480392088
1.137162662781195
1.235030481607595
1.233186057897298
1.226754229107019
1.20400486488575
1.185982238128551
1.163576752066833
1.080281105353287
1.151399275919237
1.107704799075621
1.071367374822983
1.105024145972994
1.147539404659629
1.142979678458702
1.156598780463575
1.1442949056877
1.169618597778941
1.170270155859084
1.154707241353475
1.12621147485652
1.22609754565463
1.232990491503857
1.226119410239501
1.204342715603426
1.185777710338451
1.169672551285212
1.07119070135489
1.143421788448371
1.108072920030382
1.063867530332251
1.081295425720155
1.140600957451553
1.156885587712737
1.133971083239846
1.169527595448487
1.160455404011124
1.172306126276863
1.153728582566549
1.124365089023394
1.217091465751812
1.219743266256465
1.212271067198256
1.20926321611247
1.193131853552641
1.178444442576577
1.162510300578408
1.076309395752097
1.124999376758141
1.15094984428217
1.059732831952898
1.081214072951493
1.14324830723853
1.138756838834202
1.144040223707494
1.160846139548268
1.171691871756364
1.154471645607618
1.168697131990854
1.107155176033283
1.213067544205496
1.204086607375273
1.201074460302575
1.192505209230425
1.177449502378877
1.167471551662334
1.15672532240978
1.068394712313428
1.113597093845663
1.144015040927624
1.048870465452553
1.059906826236919
1.139816573707713
1.137470775077807
1.163375563927836
1.156424885395706
1.168596008061676
1.14044235067902
1.16089939658708
1.168824284801675
1.11205973791871
1.203452072321466
1.193792494190561
1.201445400416123
1.183853493358186
1.164735617729738
1.156067269939495
1.078718577279903
1.126133279702942
1.145908920833089
1.137942572522529
1.042872476162545
1.062306877126421
1.143384424274801
1.13629369798023
1.15210625965696
1.190008628191339
1.162038103677409
1.168226287625956
1.137176331518455
1.155962163982887
1.162079560942362
1.084203783601249
1.192889397513572
1.183249510018704
1.188376145835225
1.182477616258039
1.169384558391459
1.149177688285985
1.064477468918546
1.115494336489093
1.143976954623806
1.128333452618479
1.038047017312811
1.040132442642252
1.137202259569337
1.13485721009994
1.198680203622634
1.193579127813441
1.156493726769882
1.164074514139874
1.139216595420412
1.144785830808803
1.160364695011597
1.092779543447757
1.176081201576495
1.184832507532831
1.186618155755633
1.166115210732741
1.148945426165026
1.081339239857296
1.110465542007624
1.13346959111381
1.129002224783866
1.038559631694799
1.142707773485357
1.134462394696269
1.19930559099521
1.174636046725624
1.15775915552934
1.163466415130695
1.134172526021515
1.143000546255271
1.149761408135313
1.159643806979589
1.060223230490163
1.172254908702915
1.172884320226947
1.175213188155835
1.175143743833105
1.155854573274878
1.149417695276869
1.060739918486189
1.107917018408779
1.132983230604038
1.123478156179908
1.042079549406137
1.132610701809398
1.185196579539106
1.210006895697039
1.17265373967216
1.150481272831491
1.150751164644124
1.134861573151127
1.133056702787892
1.146967567313168
1.151960695235495
1.079515307582292
1.16707859539497
1.169019612762779
1.170573619597755
1.156150898215158
1.139879399968383
1.078891217811305
1.121467601526822
1.129276712119274
1.126294404981966
1.044154820112892
1.134847894325645
1.190444889318927
1.211970642167493
1.18529459417222
1.164039247463485
1.14999905535169
1.143600786623763
1.132002972341882
1.13879216331501
1.147718069346266
1.052438271990981
1.163894207383983
1.167094105434358
1.164452532417203
1.148410304405134
1.142265694953598
1.079071631403321
1.122734872622682
1.132386759746035
1.128372338776003
1.05230789139009
1.118848637333786
1.181823438302416
1.213449771927906
1.174286816851801
1.162136818815346
1.166593118084447
1.136050384775903
1.14953261159677
1.140635732991468
1.131945814886011
1.133338689831729
1.135299879780209
1.062724182123209
1.164099762171533
1.160389036643059
1.149518661382952
1.137606667105574
1.116048067869787
1.131106778072987
1.133885554303162
1.130640282870065
1.063330224733096
1.109469297686287
1.219622998816918
1.184421278142719
1.161444372138494
1.164522847338946
1.130727899653048
1.141675293488311
1.145655390555127
1.125913677103846
1.127902373859679
1.132942945721476
1.040085332274352
1.158606457469468
1.156406527879892
1.159399335053969
1.143284995218399
1.140597859744395
1.121989586277778
1.136063985313188
1.13690896180353
1.134928611473787
1.109326770581121
1.066537290772124
1.040373860571898
1.220633282149951
1.179141026150944
1.162353620037675
1.160385505197584
1.168698209859677
1.116129204507519
1.133083430273614
1.214241104491701
1.128136119955348
1.123136036528924
1.124101248813671
1.124529057796858
1.146138634576998
1.148929725310037
1.14300757395085
1.140099909001403
1.142773065513621
1.133359447982199
1.138052328687485
1.138779471854304
1.137586481739478
1.128064088655625
1.103675388643836
1.030797103815724
1.222235783902268
1.190184364980035
1.161934579832387
1.159824050599135
1.165891915730509
1.107988814001696
1.03334553053987
1.124395076606099
1.214023724993454
1.127994474876165
1.116410242573549
1.114539618896098
1.125308830182302
1.117292825792898
1.149974800681916
1.148258097914694
1.141671350705533
1.142242770976251
1.146526999107732
1.14024939362561
1.139454289954616
1.140693315728823
1.142161168846455
1.140139867009476
1.151952633291368
1.105159234701736
1.071437011885318
1.225231866798314
1.173280304989333
1.163822358911346
1.15881504424166
1.16801447268461
1.089354369461283
1.016693462906512
1.180864269346149
1.243510312590921
1.115048329167087
1.109996381392482
1.117632493679211
1.110384201331574
1.14411512719437
1.165810916780228
1.140283429539746
1.142340993695023
1.142673766532746
1.148427348047265
1.149130403550454
1.147923872416859
1.154497582968558
1.15532380192008
1.088526871834964
1.1786845797083
1.168852052387133
1.16435620502558
1.160041756762179
1.157619790806938
1.168085354606531
1.104866622715016
0.9847426157339983
1.001249232792268
1.188379019549946
1.24817979525177
1.111019912483265
1.10561434669703
1.109420373167549
1.109805651150362
1.258379553880511
1.14078847573253
1.141759216668802
1.144755074689327
1.147222022050105
1.154341555781124
1.149165832152017
1.151504187878379
1.162071089378523
1.130886618064618
1.180892695156259
1.170122584728366
1.163373206259352
1.16710926678151
1.161261148646306
1.158469717442855
1.169894928029091
1.085600424640804
0.9808559343932837
1.035998675994629
1.143847701974906
1.262463162146706
1.194715385404535
1.112562757641173
1.102345594808158
1.102301124539447
1.101430819739164
1.250582089068921
1.146836483925162
1.140694338125118
1.147575265278818
1.153392672184424
1.158973613264195
1.156433893820596
1.157721581787538
1.160018242814306
1.161724413165867
1.097414737458708
1.15856409570855
1.171261599095447
1.170031654322225
1.166354020289398
1.16945993399778
1.164995412977066
1.15899063384589
1.171577000058022
1.095261041769504
0.9763933698127473
1.032476463056606
1.176750630327227
1.263105798890949
1.195269479941529
1.105670290868511
1.099266312155805
1.094185421327976
1.372656954521591
1.208629816379373
1.158360769700782
1.156268780468844
1.154457251480569
1.154095424668063
1.159170471326079
1.156012596578317
1.15549706206672
1.159133980835799
1.141620682859603
1.152794816637543
1.171903422041122
1.170734313513347
1.169039630855901
1.170446629203661
1.171566742478157
1.165705291618994
1.159272081427577
1.163975479219967
1.172157134726008
1.07842514076171
0.9611310851549496
1.034425855810151
1.272178613335483
1.114875292412821
1.213585926200571
1.176964946599915
1.09565998163526
1.083257405153801
1.364209582966555
1.366300491958125
1.214824159636757
1.156851799967405
1.156885950958301
1.168892666844709
1.162875808550784
1.156821183294543
1.153626237388467
1.153771000798762
1.140244511366392
1.171030459300402
1.170139154925276
1.172671076426989
1.172750297982974
1.167487269939637
1.168997608005691
1.166074816688195
1.172625430111307
0.9596897829399924
1.073572164344269
0.9928628144613726
1.1093472028345
1.274451263640713
1.115281097643281
1.207925811101253
1.179627715611393
1.086305969683505
1.088951243085749
1.082591190428772
1.38040511434366
1.365637463967879
1.349681025801287
1.161930125678701
1.16418130380373
1.29570499960478
1.165511229525479
1.155509226666823
1.158300226277846
1.155043004049161
1.171506254903081
1.171557315785462
1.172879094172748
1.173124452933303
1.167269093067685
1.17954905970143
1.166672555406354
1.17333528044544
1.171672274909334
0.9435894823458602
1.054652174200173
0.9886695689544872
1.112922326586616
1.26305248862031
1.218085792136743
1.155926403418448
1.17167403617681
1.078945584354763
1.079506138599383
1.072606806503
1.385122124359906
1.353599497606343
1.342059298784118
1.163141771193835
1.172184212923445
1.399706588742841
1.165574828263245
1.150468271275513
1.155476542824055
1.147392516968205
1.172359145335842
1.170167529679088
1.173263817890656
1.173105653838248
1.167172059518979
1.198261310231453
1.202124356430661
1.164853908302317
1.173267751859518
1.170825228271567
0.9352420597317682
1.057116058403488
1.02807686265397
1.09868855637744
1.289330786784986
1.207480600675632
1.136818236219012
1.170442759031137
1.071536736936654
1.076432348465908
1.398324668715932
1.314318911877961
1.375725880178666
1.401005463442634
1.164692338914735
1.322768343127527
1.391760000973679
1.404715194680377
1.166821505058897
1.146962219407831
1.149516913832087
1.149288330603011
1.172444500379443
1.171811871589193
1.169337699916305
1.173045939316375
1.173217827860937
1.165613726898016
1.243828469558336
1.179466274483978
1.172253818893457
1.172714835181525
1.167861256042192
0.9097892216902758
1.042467338221751
0.9953260077017365
1.118658904615033
1.229701552956725
1.283514510037253
1.176574557047609
1.225386038101625
1.080305377723154
1.070803712313257
1.070026034852323
1.30503198078929
1.368050334499146
1.170120012679614
1.354980980249528
1.442325320137315
1.409008122034055
1.166634821926688
1.146050748053475
1.142814106186868
1.137486103770584
1.172471302353361
1.171528214873928
1.174820316676928
1.173090929628922
1.172357006024792
1.171814310624784
1.170621810727678
1.293745444081205
1.195797031935614
1.169028631359181
1.170609026514427
1.165770728219501
0.9087456197732948
1.05058067971434
1.03444950025836
1.10343217920288
1.203493428973862
1.288298844815703
1.175337308158876
1.176913876326574
1.075901728184728
1.069523755577083
1.279919959968025
1.325959638579351
1.38055787615849
1.250485695533992
1.466587309826534
1.449331897801786
1.419687993241241
1.162484105090904
1.211086759079853
1.133263843011195
1.142496853487598
1.172403879458826
1.172171388299464
1.176131299558778
1.174985485689241
1.175543364750893
1.171188479359769
1.169474545496422
1.174732230719923
1.171210961036786
1.293533443069523
1.254841295396069
1.167582761584792
1.168647254336497
1.160968707428373
0.8891141217356152
1.045413132332052
0.9797462465333351
1.095610397105045
1.11194284175472
1.223632758175911
1.289054104430699
1.28232401938828
1.088522154617477
1.066956377307711
1.280683969500913
1.318196108405589
1.341208200682429
1.297977103038679
1.464650699820889
1.406126374496493
1.369324453520222
1.162862228043908
1.360822786247066
1.129677268579019
1.130630889556266
1.118276423903297
1.172010151097709
1.175522955334202
1.177286653551261
1.177062792504823
1.177265138286874
1.168749914432475
1.167336130405936
1.177074287267964
1.185407955368945
1.313474179852543
1.250445293979972
1.161506176243525
1.165617683385072
1.158241794440026
0.8771471578804331
0.9877532224336432
1.031709745052149
1.104283787954446
1.119819401324282
1.22115373626279
1.28944673494134
1.242465625359719
1.083224711920987
1.066824509705611