/*--------------------------------*- C++ -*----------------------------------*\
| =========                 |                                                 |
| \\      /  F ield         | OpenFOAM: The Open Source CFD Toolbox           |
|  \\    /   O peration     | Version:  v1912                                 |
|   \\  /    A nd           | Website:  www.openfoam.com                      |
|    \\/     M anipulation  |                                                 |
\*---------------------------------------------------------------------------*/
FoamFile
{
    version     2.0;
    format      ascii;
    class       volScalarField;
    location    "1000";
    object      p;
}
// * * * * * * * * * * * * * * * * * * * * * * * * * * * * * * * * * * * * * //

dimensions      [1 -1 -2 0 0 0 0];


internalField   nonuniform List<scalar> 
5975
(
37270.44373316184
36949.48492170391
36679.11627025469
37507.14810533674
36993.83896265904
38145.86831698746
38029.36726926025
37731.35705307608
38820.53571537504
38538.39712811011
38163.42627372235
37843.72909513889
39398.33079985649
39176.1726419152
38871.74773516302
38117.61398277337
37835.44100966083
39885.39494624293
39671.0306068679
39301.24909554362
38853.97855486388
38547.32785199505
38432.45984462057
40300.39367840934
40123.05407169704
39827.77056821203
39141.67906808232
38731.92883741628
40675.30342641653
40514.36116481618
40218.03868549332
39791.49105705092
39235.30448605339
38663.51453833803
39076.11488429298
41231.44720424104
41069.25002545298
40413.54666188877
40412.42255278684
40076.97474670083
39566.02287141257
39124.85754654149
39273.67637290925
41616.69162406799
41458.23692341388
40768.92845154636
40380.83691944496
40031.55475991645
39563.20291245796
39444.22179925547
42037.16236052511
41813.10314531222
41405.13913060541
40922.37827079446
40338.43588570959
40132.51203655357
39842.72510470993
39863.46581756887
42377.21679239911
42326.20428365354
41904.58314712382
41378.94475749902
41242.99653882874
40603.38896739963
40132.63642904528
39920.56593314611
40224.45249902875
42672.97725364288
42553.51899049284
42157.00112773327
42433.58656054656
41819.07495308159
41482.48364103975
41276.16890396493
40713.92982041428
40439.89331870098
40393.87742169156
40526.48266570724
42876.64922829552
42845.24009313327
42621.68799458142
42302.54081546249
42402.54302411133
42065.04000014229
41407.73126323008
41099.95884343508
40945.30685814171
40913.17253371178
42968.48678569153
43032.81646963466
42744.37263145004
42913.53451849209
42596.83728457351
42242.74169307655
42465.10358581039
42038.94235331602
41414.24090584072
41172.7163465585
41086.02170160651
41324.47697041385
41204.41967997069
42803.58928758849
43012.35616600857
43014.30233848993
43047.33473925255
42873.69510142726
42745.27161473333
42308.15220443469
42431.29622365823
42200.33791740121
41840.01957585511
41526.89520775827
41832.65279744349
41583.97284076813
42476.41404307965
42723.43349702142
43034.96402632462
43118.05817504729
43126.65047127138
42902.00217963535
42759.9177879428
42554.19338160002
42364.24226877388
41930.01471499285
41886.75380112276
42257.72508032359
42260.74545770348
42223.41489291546
42624.88008985171
43143.94036041508
43175.87910017638
43155.30299651826
43113.50858027167
43025.32783856615
42564.5497393512
42469.96414843623
42281.25158060964
42262.05628213428
42454.68046221952
42236.23665302015
42293.94805177455
42156.0425200305
42348.48022506366
42128.56582871071
42563.72515430339
43077.09707839736
43241.10454950658
43281.44215161486
43196.01719203139
43201.90472142946
43006.31387515947
42774.23106666301
42742.21584806564
42610.71654912057
42320.57968511915
42569.90641856789
42465.08108587162
42400.92322545122
42143.63926334193
42178.09518806991
42120.24026419903
42262.51131630598
42753.95482102543
43210.98664481468
43270.01174030162
43278.24020062979
43313.46628927632
43184.8796145068
42786.14445714784
42839.60606170445
42838.19173212584
42971.67739724898
42395.27206603895
42626.69816804393
42286.93551781246
42543.84034148152
42144.70955233881
42077.04432849875
42248.63750094594
42676.65874310428
43160.02883682022
43261.87887121387
43299.67156689313
43286.10637923006
43115.97760682207
43164.29737276687
42986.60586882132
43152.37597380138
41894.17880527029
42351.15274647502
42704.44022126801
42350.23240994562
42523.56041654626
42263.57015545911
42105.39091095305
42159.5013720065
42434.17962438294
42905.11118878738
43194.1859170709
43271.81401104404
43336.18586493523
43255.48496851338
43214.39101035064
43275.96404406187
43196.2497531008
41298.82736316967
41448.66919167079
42054.00650549842
42712.15912175947
42626.17158680212
42330.23634461532
42231.85118828616
42154.88575301513
42428.54773258771
42928.12753683496
43218.05537042431
43255.37547479349
43312.17228150852
43281.87658488869
43245.7691406798
43383.00385493269
43202.23280214578
41257.39540561989
41040.59760343476
41140.67508738722
42074.09539429916
42760.49957330355
42510.21295340585
42502.56608862392
42275.84196213714
42213.67497185485
42224.57175099004
42680.57002640536
42969.73223930968
43085.22503453712
43253.77745479389
43222.7493447184
43318.52276118106
42954.84040105683
41500.54747912815
41329.23880605303
41008.86087050664
41030.33077891537
41134.62482341593
41399.72379575445
42761.6390219389
42480.33101921636
42526.12682570819
42421.39434227606
42249.57361149992
42233.26390313925
42661.63846456619
42921.70957656804
42946.15075155455
43033.00578171964
43008.51041545028
43315.21578048079
42840.14784223399
42816.10497667517
41747.56982247368
41682.56671359076
41367.59975003435
41230.669067923
40919.53610701354
40923.64267074015
40911.08274662821
41378.60158248919
42704.36616347401
42174.71286643622
42641.60194083976
42379.19809491133
42193.60604324326
42360.5731422613
42238.53407513213
42557.82813371315
42553.72021270056
42747.4051953598
42881.25087680959
42461.96606825908
42473.28121898438
41770.52486688674
41895.41415165658
41548.9360268004
41744.33834765757
41309.48638714382
40946.19783090412
40910.88469679736
41600.05118914724
41022.54054512415
42692.62065375467
42346.48461439958
42603.91401894222
42482.864097659
42154.0367957729
42295.07339875982
42386.36799446266
42179.30753441089
42347.68248039239
42534.27462998609
42799.69114205312
42460.82395441532
42315.0718175666
41064.79374904097
41792.80710318247
41987.92014227632
41573.40532043838
41722.25730894208
41315.62545669086
40866.84314603287
41170.27109395051
41263.19944197061
41039.01577631939
42759.95397287678
42044.43348367284
42742.56062665802
42451.06064864328
42153.59745298428
42310.69551378172
42200.13666368861
42521.03257089786
42627.76683757308
42314.64490473646
42533.2049849196
42246.98463884031
38989.85380395205
40686.87209262939
41643.3624295532
41982.10621686061
42049.03179356961
41610.36136406276
41892.06734943837
41488.02982666669
40948.88333127552
41197.7206595167
41472.2557115158
40927.74805236144
42848.67772356002
42256.7188527359
42777.99463859114
42682.96826113688
42208.08671094758
42587.57171134044
42137.82198757466
42552.11630480144
42586.17054617847
42326.53536893228
42490.500347499
42397.2596368019
37345.92772751889
40431.71873545605
41958.03659294474
42074.68197439599
42184.84569900626
41844.49027738728
41634.18639682246
41447.08395358508
41144.69541422677
41092.92281881624
42916.69709150279
41818.03562917517
42982.11498673941
42776.29087316014
42434.575466457
42676.73551204485
42761.90370442689
42687.96533904868
42238.28867122032
42631.34358280255
42528.51164635851
36685.6042295429
41148.19196021428
42062.3582985769
42232.10127670885
42369.63578229679
42030.94381871709
41981.25097641401
41537.11790490805
41316.73064374399
41286.78691502065
42974.04555180013
41944.11516592881
43110.51645089855
43138.45542482743
43111.84373549445
42809.93215665079
42900.2029752377
42596.69616676091
42277.31994673327
42735.46644992281
42870.77876596547
36922.07382829871
36636.59754754163
39867.32187803286
42332.19266126469
42503.86797377813
42633.37418956488
42284.54455459685
42150.18719174647
41976.86730128807
41128.49067012722
41463.69294653168
42330.73709775016
43191.10190428004
41584.83336539222
43233.36955540095
43135.78711852228
43013.73042694085
43085.55814611668
43029.27265658403
42895.87278275016
43002.76996977325
36540.07468342261
36577.57802567956
40934.41773455562
41968.96761991011
42516.81842672465
42319.41618933485
42133.28580653723
41961.94489260478
41380.11226451444
42107.29175241272
43191.31349979448
41321.65674404648
43375.82330626154
43405.594291304
43338.25219803366
42958.29241354185
42935.46324385792
42915.1429747178
43385.74808811276
36504.99442590085
36624.62163971618
40713.94478297292
42253.57816482205
42436.61989538832
42232.82337129247
41926.60863774753
41399.00710843133
42535.10646679588
41422.76502433041
43282.39034118712
43011.27547855616
41298.65839948401
43410.2161831217
43419.3699117253
43000.55938963764
42684.76349718317
42798.06321440225
42760.18654003642
43214.1550883436
36414.71303826398
36539.25453251926
37447.63725572066
39346.63896968208
41843.46892591753
42137.12755977343
42346.47877538798
42086.17795735942
41791.93196459283
42347.47471391713
41182.20923170983
43131.94982314439
41224.55524680685
43215.80310357845
42990.9004808506
42424.06482363299
41991.95003844054
42659.76502934362
42440.99061684227
42552.78933956179
36366.04543912445
36768.07648529648
37608.332044863
40333.04030066299
41907.94318807567
42211.13261595697
42239.77863078986
42039.48799946278
41774.97983310046
41246.20820733036
42986.72273628984
41095.45226105506
41597.35626589778
42181.69076669321
41726.21392343286
41551.60617474926
42125.2998688797
41758.90704444266
42190.74561799272
42081.92429709632
37041.47782582912
36142.61276783991
36038.46303588952
38865.20621012141
38129.48103144475
41401.4233111964
42108.35578544768
42158.82112042789
41916.90427404093
41163.50290087284
41123.88568094455
41670.32174375107
41361.67877833848
40926.20049639359
40431.67754393796
40366.5657570864
40501.44535379393
41071.47426497059
37282.5589241272
36227.10557141928
36023.43840876553
39559.16191727208
38499.16483868715
38094.56042717071
41304.9033014957
42106.4888586743
42147.15517668156
42001.93097681143
40811.73695958193
41450.03230077409
40965.94770892173
41881.11221616306
40842.07173425418
40408.64829101972
40842.11412014347
40451.29765637989
40412.57207697965
40479.9598514252
40565.28224905782
36910.27357771554
37932.98744567444
36028.34115087109
36070.09470397406
38738.83988473468
38551.55202522692
41774.16876799617
41919.56538597433
42094.04473797392
41944.06934745734
40725.96616118964
41451.78897313125
41212.62996789409
41806.43526918039
40585.96366432923
40673.48205525492
40770.94494513656
40895.40508960969
40853.13015699526
41204.4633452557
37275.76846677902
38143.53297476809
36425.53681548398
35570.96575678244
37125.90854050178
39453.40170921107
38819.93540000299
41717.76379988949
41941.22559009784
41995.55197058568
41906.0460044319
40674.61819681388
41684.96647586672
41089.58167250115
41863.24325134513
40985.14962505534
41021.36168339234
41044.19506526084
41299.88163810713
41724.1347432633
37940.94202909819
37030.06921977494
38673.74525318768
36202.59187638908
35687.76685234817
37179.96100078299
41365.20585352356
39331.55658216953
41958.65893969445
41898.19268393054
41627.76387600377
41495.36529269252
41795.8738740592
41331.15791043895
41443.6552525365
41454.44689473437
41715.47012239324
41713.62332274349
41955.39658992663
38279.1328775253
37388.98879608836
38990.04595495905
35632.91879756429
36576.67059770332
38157.43774529757
41402.36859205369
39626.37767642314
41899.27586270015
41697.62551683932
41469.87781731065
41831.02434227683
41747.34857394107
41573.97506075781
41989.5051767857
42022.64633399012
42083.47405174938
38822.97845447592
38057.95197854741
37147.85691343684
39436.14976252817
35867.44983186779
36480.18990238563
40965.98654671393
37284.06452030126
41669.93554396182
40142.45980157729
41828.52378280018
41678.19609001937
41644.23345910774
41812.10308845196
41833.35803862834
41948.882574756
41736.99337312012
42090.13192265126
42124.00485813282
42132.80642690555
39142.91788722653
38398.24017702665
37480.33169673273
39753.88037491759
35648.87404136395
36067.74568390038
37081.58745324978
41464.188913912
38050.85561700961
41646.24819193256
40260.36905824194
41724.81751702951
41897.0180944034
41781.82815312588
42096.83634718455
41914.43221888051
42115.81036982782
42171.29692113971
42096.19702246459
42197.68185174849
39635.56888906688
38971.31185163165
38113.72263981489
35924.1264406773
36127.74028851841
37204.99518945107
41462.23082339902
40459.60805293225
40609.36428547305
41878.53221506656
41978.39372164677
41893.71687793783
42184.30251832194
42037.05851035724
42199.87125520722
42159.98730007339
42139.6477965069
42263.2093174019
40003.1755431589
39294.55897104532
38410.96931299234
35996.51528152201
35917.76866168687
36671.20967191431
38007.83685705689
42036.36326121537
40728.11094306428
41131.83482631751
40429.42353764943
41997.34008288464
42057.27107574773
42186.54997456398
42174.10557531056
42305.28495198509
42207.09073235955
42182.55870542261
42188.69972189972
39833.7335691777
39040.19412214213
36473.77191447488
35981.21064965339
36832.98370306382
38166.93985791316
42027.82175197842
41894.15221571662
39288.93216982882
41221.67664404542
40744.64930705587
42198.20982823661
42276.720444166
42235.11079228517
42321.47895003134
42286.59155768289
42264.60988799597
42186.82680590932
40089.62089933704
39335.64237474184
36191.5168651964
35970.70706637012
37604.56514744734
36335.3457997565
38691.94026191076
42014.05910582672
40485.53840853189
41680.14649738024
40720.77487378399
42230.33073091985
42151.9948900441
42376.10407965982
42151.17718311711
42263.30534049596
42267.17256051307
42317.29761208839
42202.00795140315
40518.65714811174
39865.90137061161
39199.7021144243
36438.35046257622
35841.01403537032
37615.66943997223
36453.2366369404
38837.52604202898
41697.39739592966
40015.75888998023
42109.37458771083
41548.6914942936
41036.66166526011
41982.25449278007
41934.46593857206
41994.67169950804
42214.78334004945
42018.96200509028
42278.33789705118
41830.43404877017
40685.15348846599
40210.164913079
39626.22711226768
37961.70003940878
35736.34322392624
36048.62880753962
37169.69957201307
38071.08994212708
38607.86039265252
39434.85048036986
41945.06475919555
42415.8066579186
41901.89503641743
40964.17816191549
41393.62304027174
41964.11972466479
40854.32863792977
41738.81386525907
40801.33067434236
40608.18115391399
40073.95089982439
37952.86409054472
35942.36083622032
36089.25798493622
37227.87340796793
37847.99024616698
38919.19471994672
39829.64876379629
42833.12390396961
42289.91052119874
41680.08433764533
41126.97225378665
39396.72314480726
40465.6541950793
39502.21746874865
39925.90661849598
38872.50116539408
40898.11881984437
40233.18816962712
35895.53386136483
36879.76556821725
35801.62932682088
38056.80895601627
39528.30108496294
38606.70800539758
39873.72894045131
43093.10445644217
42603.74911654829
41997.48590329567
39092.67822142161
36745.40338212108
37736.89748754037
36118.69225338591
41068.81774139835
40518.4362279765
36964.92208636669
35786.39477272979
37871.87557519083
39655.32554757343
38687.22168390374
40293.10299135325
43003.06618906546
43424.90877205439
42474.928908585
41775.66534988517
36844.30706330728
36163.74759558779
36198.84452899612
36471.7620042141
37677.76861527078
40892.683193595
40513.45148979525
37436.52034217799
36590.53851968914
35800.59096282128
38288.5535007445
40289.85317339075
39215.03572069533
40426.54701401931
43326.88847337774
43523.74090657051
42736.55059327757
42062.74214653129
35691.25481590817
35604.16052969256
35617.06023099837
41174.4953352826
40890.7890375287
37281.95330043969
36721.82462363153
35838.25136305044
38152.39445176502
40092.23087580811
39161.57051606521
40953.05200151564
43322.9409745694
43715.49247241268
43055.84721222927
42533.86042112375
41792.48937149164
35654.98622076201
35585.50388991927
35504.55185617133
37557.52241184649
36456.45907327284
38645.48190659901
40503.79642848163
39631.56649692229
41284.52712062551
43661.49549874365
43433.28305334395
43708.48163173015
43162.8361287668
42699.96185845794
42019.24959089811
35814.64904343007
35702.55286945985
35385.61522393604
37404.61135371376
36713.18292964654
38473.08914481985
40289.49754105347
40763.31541465894
39415.54373406451
41172.8563449562
41732.95772424382
43497.30143745019
43174.52047061346
43499.0842956703
42982.80990804207
42456.40257916507
36471.60511092042
35727.8412389156
35349.22323025673
37953.91845962737
38628.15015469674
39769.47417967361
40595.78094763098
40824.87264924071
39062.18920306087
41742.18199568105
41870.04374979572
43499.04920483001
42551.19966862397
43404.03799968516
42938.20987926737
42486.94292449463
37182.45601981314
36517.93950311861
35411.54761595075
36190.68962976238
37770.91511075258
38206.40594208972
39697.1682525349
40415.35105388
41135.19061987421
39237.48083590377
41893.78954187411
42254.61823999746
43362.15701887428
42226.16784640027
42441.36837806959
43112.90805384019
43171.8269059311
42679.71337946199
37123.40810201802
36641.50478335284
36418.17940106564
36722.71775009003
38300.99543528975
40054.70871541658
40635.98844745957
41485.06758424526
41052.0909340521
38924.45242215248
42184.19275422514
41696.25604651216
42331.65000157534
43321.85678235102
41972.86530213393
42708.63419785813
41985.54125686226
43212.7924923015
43126.98316113282
42665.16862658191
37787.1130001562
37280.91801054305
36623.42864272444
37302.96422548658
40091.85040414151
40516.83707831164
41841.71566384993
41267.64148904984
38965.7872749918
42338.78243115954
41981.35830071782
42502.02372342705
43322.14295408722
42021.08571228842
42632.92281854901
41948.61736487338
43042.92451195235
42941.09900161299
37780.87926746632
37351.41063125607
37708.1524565913
39923.01512763465
40975.57484890141
41816.44067936266
41777.35411498014
38623.42447339194
39521.64569591733
42275.37675780163
42544.1355087082
42621.38874577966
43347.52438459638
42090.00827414273
42238.53248137373
41872.15141381097
42030.34519625069
43073.88859276878
42952.02857040615
38186.37476610768
37788.43133421458
37628.72278593378
38146.64452923818
40154.40011628216
41022.60806900031
42245.61528419077
41929.58724656818
39002.26470005455
39437.22189407681
42334.85724871403
42646.69412530137
43249.81310943107
43333.39917423577
42100.11304339008
42837.26923102474
42359.30579114032
41941.92169118553
41967.48438984135
42718.49089443512
43207.73735542624
38402.24585616552
38357.1706075698
38760.90764845902
39807.98657131986
40590.26973683351
41516.78106593833
42364.4502983312
41908.67589608636
42306.19234995409
42539.29483836064
43041.16785562668
43172.43450461812
43272.86103894385
42530.53766626602
43002.6929232101
42075.13963467174
42069.93109498055
42818.65226815112
43218.27369671676
38843.38205865346
38587.08300641605
38696.82713287776
39882.20480734972
40697.2013331392
41482.88385722785
42559.05812455932
42284.72661643974
42558.94224554044
42660.08287112487
43202.56609133517
43308.27547475529
42700.54168195525
43523.18217436632
42147.48275243631
42471.50383490195
42052.99889379249
42801.47543899558
43326.18110776153
39293.82510424197
39172.67898106887
39434.4282259905
39714.70580026986
40365.06843003436
41087.04978962538
41869.39295120008
42663.07863815963
42617.01368997516
42377.96980615648
43051.66421042568
43488.84054476555
43050.50000013349
43473.36057785038
42750.93759254907
42418.54337247006
41981.28208468058
42873.17743325973
42217.92437145494
43415.29895969339
39563.95055222169
39901.5351370835
40105.19440488944
40486.99363756159
41207.20312823149
41680.96275710726
42161.02573721825
43079.69045917681
43043.98806220092
42696.53623740101
43177.28459211451
43559.50770044679
43068.52933274141
43632.32711625932
41971.49090246218
42453.5329622744
42034.9915015713
43548.38900842393
42619.39809002982
42174.02757355119
43217.40571638037
40077.5360160764
40621.99976745259
39861.36657226293
40927.72212755597
41899.08748766506
42270.85374987758
43212.45314892918
43144.03103457441
42702.47819805749
43009.26679491199
43539.46620267823
43597.34358418214
42758.49936392472
43583.09309923034
42252.0367489076
40657.18212454645
42132.60544061109
42010.8529552586
43769.06653744536
42885.50685761225
42469.85293779864
43303.35367651023
40609.52031900555
41125.33325789166
40551.87672016252
41072.47758055962
41746.71302226656
42636.26297770873
43556.85270118638
43485.89350568512
42846.55012818138
43389.13932080227
43539.51314607473
43506.95065751922
42767.29544697505
43811.67647897764
40203.20126208891
40479.46091265317
42169.61790976702
42038.58997237389
43762.21639423683
43480.45298553784
42580.28388042373
43012.99045905793
41565.16872250928
40955.88188471912
40584.09818403561
41982.57399957685
42723.04344277222
43512.46373186974
43592.09338531873
43367.90992352573
43539.00748504372
43596.65717742037
42338.4466794801
43444.31941698865
40212.84152016908
41443.49655149339
42055.23100461106
42023.57166793129
44018.13079824521
43585.78203641632
43101.56399754023
42339.0692749658
43024.44901199881
41841.69202379467
41622.51422282842
41387.47934604131
41238.68639634017
42443.163598464
42757.35557402625
43666.0612863573
43744.8828107994
43453.67263607687
43758.99636113727
43361.71401904801
42361.56765528398
41210.19843573457
39649.46953662659
41517.11217282106
42083.73288140388
42042.28032450844
43937.10287826
44114.24167673875
43162.97082346072
42616.90008769832
42559.63392519807
42056.31135324789
41851.50572044371
41540.10687806462
42520.43778984139
43227.03631370836
43759.55632928903
43792.90461562027
43636.88424064494
43696.42132069913
43173.87278526848
42120.75364444416
40743.98881553245
39714.04190487302
40923.34892261583
41997.11247017951
42060.44509859241
43315.75773371631
44164.82751244414
43568.41907308823
42562.99932855347
42387.36961601533
42261.03821784354
41939.45474222489
41859.49863729988
42913.88955912746
43205.43622065507
43483.99589888333
43529.88074231811
43532.36486104902
43553.29459031986
42833.63493336745
42175.04984363019
41363.48300730464
39785.59607550809
41543.32706816332
42073.51514548957
41913.60143809685
42018.23016572285
42186.85514251536
43599.33328568564
44107.89741999047
43483.97500916568
43149.47041140281
42110.42921073765
42235.64595914425
42119.03984931131
42893.84193538758
43430.3466972932
43330.0850524073
43445.55754369712
43433.66374519162
43402.17004845442
42498.42339615912
42240.06189427838
39490.8095031659
41085.86708275817
42113.97559415011
42049.17033395016
41862.35208206643
42198.63360986474
43107.15682908603
44324.4686188359
43764.00407209941
43061.5670605844
41828.05996062449
42521.62063960336
42129.21350246269
42551.69905371789
43227.95035825017
43381.93505242999
42794.95594954381
43100.73755606806
43344.6700577719
43153.64916372341
42547.85189564371
42023.51838199275
42088.16544393827
39464.73174953422
41480.98349109917
42106.69235562286
42167.41087476885
41936.43586887488
42004.78408862875
42585.82362024466
39772.98321230296
44359.72377213572
44213.33242509434
43740.16717405113
43333.2788680814
42665.73390150057
43014.75032801295
43222.62810275948
43390.6254837743
42886.00310170354
43032.49012867967
43402.55495937556
43163.97904066645
43031.16536298876
42109.83115633421
41900.93974680883
42447.15779112789
39367.25742460367
41023.56245993031
42160.93988360612
42206.68650348482
42125.66420316348
42326.56791543503
41966.49669994754
42629.50696665397
39739.02821803042
43929.14890133467
44446.54368413764
44273.44589556188
43540.60944317235
43105.66116837842
43057.45604790228
42061.58857916382
43328.87204718175
43380.60374310132
42612.7223248681
42758.56516305678
43305.53850525024
43106.28692314865
42978.18852613688
42702.05160454663
42198.60692543407
41833.64580685379
42110.58323493595
39433.16574400536
41910.02042371058
42160.54025076494
42265.73441428829
42115.27468428211
42579.22755536925
41217.40294110488
41444.26197070434
38342.33607173381
44573.10612860088
44388.34144289775
43677.60113890387
43251.64112914861
43353.68254175175
41578.02876694337
43320.32893358896
43364.18128203316
43289.43040415414
42735.773307952
42566.57684126939
42336.93021729407
42126.03051263431
41962.15916461782
41458.09728477554
41603.61285021046
42105.0110103308
42164.79249901297
42221.45819893362
42313.43695684588
42124.07544477168
43091.45291679176
42457.77803040198
42370.60467840167
40718.40542535646
38328.6849597568
44619.53142386065
44620.92764693018
44202.86667383433
43497.29884033295
37128.76164946542
43194.52850204083
43398.08911207018
43135.46535105022
42752.47729177445
42492.19624570758
42290.441826597
42102.48180189671
41602.52028346343
41559.27459558297
41566.51202991065
42122.84722714168
42181.01658295253
42135.15584568516
42185.67512747782
42252.84943841103
42133.36622368275
43264.46474512426
42632.61170924584
42387.0455762911
42783.21689943954
37266.98762012962
40740.97142240334
44392.93793253513
44629.62338660606
44408.31949765405
43661.96451319116
37324.32165165662
42129.31872866371
43450.87315101077
43200.61044574627
42454.06936763138
42142.30351231798
41987.60708496329
41795.35522000851
41692.2292190795
41672.66198149963
42060.06756140934
41684.59152271507
42066.33192661788
42131.38282121337
42093.17431330542
42053.7120832207
42094.60871878756
42235.86102693759
42035.04397413865
43494.95755409267
43145.29892126719
42553.43815992834
41266.89998069331
37459.79094288908
40766.61627849888
44442.40773240927
44758.47256021056
44257.74711051377
31974.90700293877
39454.70508732848
41551.08535560403
42364.31943812011
42304.78831484923
42536.06402783161
42200.06424365238
41872.66983817449
41895.05723501414
41865.90017967941
42261.19980521866
42064.93451253469
42009.68113707427
42084.96818037186
42020.60651732457
42002.03885260778
42023.69693993759
42051.34971887486
42006.81343339457
42105.58146714574
42013.76696921618
43730.42970045249
43534.30440644808
42796.78385456606
36532.25485427635
43702.27846238531
39646.30060246132
41729.62121806211
44898.99667575487
44551.26184067754
32338.35187712029
32382.3937988179
39430.25662628502
42177.02112917205
42151.98525689746
40975.95818916798
41969.52462103716
41896.73434401609
41856.32114082738
42072.38000058819
42196.45785149362
42074.61430409716
41976.18027455063
41984.0453273264
41992.94846967594
42019.37652169362
41652.30714201313
41951.42154871658
41993.18678866183
43552.109877742
44347.61007174612
43511.01598526997
42795.41954144749
36429.67866834431
43724.3993451223
40078.04637927734
41459.07315264316
44778.45234053434
45247.65435965129
44729.40321333433
31630.16880216369
32283.38209271545
32926.33080693967
41930.38247167716
41714.01697481032
35236.64247780584
41844.83683096054
41827.49827516884
41885.11889073619
42325.22669281148
42025.25967675751
42017.80511909319
41976.19064669762
41972.99630987647
42045.88120076506
40767.39420161945
42019.10874529647
41951.77026240002
42012.04128295778
43758.29924350837
44613.73211156687
43966.0625919509
43002.72279481494
36724.22279702155
39351.86415579559
41249.05552634162
41969.44049882034
44953.40597313995
45176.18526351674
44780.16883322939
31519.35223542736
32862.61640499786
33190.1742230185
41826.6022659118
40594.85026337288
30863.8200835783
41853.71484529684
41899.50601423438
42128.52749837283
42618.63460125845
42006.8653425942
42091.71872981701
41963.70875726322
41973.80793866506
42109.03633543078
40590.97260427194
38884.32008598877
42031.75903990164
41939.79934703389
42007.33114681171
44460.89420667732
44723.14318781631
43924.12354284605
43610.07680238405
35365.48565718278
39788.75540489957
41946.60471995068
41908.75572118661
44938.4745851578
45243.14137372824
30957.02566139466
34556.72396048846
31930.33648825287
30757.53701973817
41696.12025522664
34187.40846007591
31071.05918026866
30578.68168920458
41790.16856969064
42112.35357641785
42265.34158924387
42951.61205789021
42029.21341862559
42043.86477304059
42126.55372369494
41987.56994477918
41972.89747861449
42167.19145604347
37656.49072019585
41245.62415566707
41924.0475394558
41950.9859390991
42036.9296214304
44439.87505432887
44824.1577080305
44611.86999640373
43887.44530582895
38371.46438351819
35506.52385638207
41494.14816097623
37645.2326992708
44682.16267799255
44951.61517541479
45129.89962976332
35003.81299429654
32372.73841582995
40852.89815212259
32362.72691386347
29056.85856596303
30485.98206400079
41045.95726508682
42101.70772126714
42637.51956677384
43352.58746088149
42016.55164651538
42069.7894663044
41900.63826750486
41937.27457177005
41987.12091388938
41997.33650192476
41869.15391106673
35484.65643135154
40420.33111363666
41922.07138779683
41953.0419137147
42044.84024684936
44738.78638463596
44863.81314878666
44566.67567374223
44420.43425231561
39578.30659153876
35417.84968248131
41260.43966916591
39058.24322023796
44652.98750666405
45015.46875699006
36235.63450929537
34028.10438852882
31814.37861529836
36912.15628883096
28130.9415445074
28912.29781191484
30164.79525413009
41931.52361488541
37902.18694940793
42532.48288147849
43303.22436214115
42018.44404337525
42015.42551472836
41831.26549029275
41882.96274851497
41814.08287409222
42012.020878932
41989.9915497523
41802.129328485
41562.52748672199
35629.52827271291
37519.33175909177
41924.75299848896
41938.24415315102
41998.95397822434
45001.32885427179
44846.64946581534
45091.93508028913
44670.47899327505
44085.35979390577
38353.66448769518
34640.72553283873
34684.8809975215
43425.64286439858
45031.37799816556
36165.93177643229
34479.92148869289
33412.87712419865
34758.9898098906
28129.05311944741
30519.71236324083
32113.48891359553
41211.55903291281
32394.95657767814
42798.88188436026
43805.62116582994
42936.36758963743
42022.69076881718
41858.14258407018
41764.0752502048
41791.56772390893
41778.5805016723
41969.99578884101
41989.75038067745
41611.06934808399
41157.3959451148
34624.7300731352
37591.41805208021
41939.232077147
41949.90244182223
42003.71027038412
45479.23377853539
44955.86210928989
44703.84322879234
44108.95834528292
43752.04935717205
38351.15411383803
34927.0986066984
35794.79278153372
43899.44917713849
44848.11826863711
36966.47254846938