/*--------------------------------*- C++ -*----------------------------------*\
| =========                 |                                                 |
| \\      /  F ield         | OpenFOAM: The Open Source CFD Toolbox           |
|  \\    /   O peration     | Version:  v1912                                 |
|   \\  /    A nd           | Website:  www.openfoam.com                      |
|    \\/     M anipulation  |                                                 |
\*---------------------------------------------------------------------------*/
FoamFile
{
    version     2.0;
    format      ascii;
    class       volScalarField;
    location    "1000";
    object      rho;
}
// * * * * * * * * * * * * * * * * * * * * * * * * * * * * * * * * * * * * * //

dimensions      [1 -3 0 0 0 0 0];


internalField   nonuniform List<scalar> 
5975
(
0.5712107750761642
0.568935421106298
0.5649975554161319
0.5751085675567169
0.5690122937764852
0.5813440787742344
0.5806321484920751
0.5769764861001987
0.5876964442938158
0.5855907095546136
0.5821277875404859
0.5782813963580554
0.5937916186561522
0.5916312775800007
0.5891630900383593
0.5820300058711458
0.5778775070160527
0.5976765563622065
0.5966475184228338
0.5930018265267529
0.5898475528366114
0.5864105038210992
0.5847505071155613
0.5998249874926721
0.6004150212594278
0.5982780242447747
0.5925650980108361
0.5879845368808569
0.5982725060325443
0.6023676708588771
0.6014324242974611
0.5991233669273862
0.5937607098782745
0.5869505568619879
0.5920171007938007
0.6043853898941697
0.6031352323171049
0.6015443553203312
0.6029283972592793
0.6016114705874983
0.5971704086200471
0.5922544681795421
0.5940490838428457
0.6072025138390366
0.6067334735145087
0.6042186909941397
0.6033290387663723
0.6016310403074848
0.5972541545057791
0.5955996838985614
0.6100570994903662
0.6093914973399354
0.6064550257454145
0.6077767565067318
0.6035762269931227
0.6023872290822934
0.600185730584643
0.6002996458832992
0.6137407927964001
0.6131590539111084
0.6105310166896538
0.6091268087947205
0.6104435852900143
0.6061127945856687
0.6031730343514403
0.6013885686711998
0.6041272096430539
0.617741024612692
0.6154758813683887
0.6119863148502565
0.6142388425350795
0.6126176983359987
0.6105621131311307
0.6126609165770058
0.6082380050086635
0.6062707358832479
0.6057886145066969
0.6076376438213816
0.6221953546256104
0.6193125675117841
0.6161836736816356
0.6143878740750457
0.6143831721006023
0.6157128688916169
0.6129626147717208
0.6119207137417891
0.6118005854191311
0.6116491937010617
0.6281449676436525
0.6234551069663069
0.6175893176375331
0.6200239882080353
0.6159337894095249
0.6154201877411184
0.6153997376616618
0.6180024605842501
0.6142337853874053
0.6130639591818592
0.6136145224428101
0.6156730011745081
0.6144374248277472
0.6264491796859669
0.6276344372809699
0.6213932363549469
0.6241529210039414
0.6187839719134027
0.6177586012537126
0.6169304925970717
0.6166564541899499
0.6191024714630109
0.6182687834308539
0.6182334977731132
0.6212298139410142
0.6183365615979235
0.6270970868782056
0.6256377291181853
0.6276853103054664
0.6216468292530329
0.6231405280183547
0.6187691341241186
0.6191097042050054
0.6186811593454035
0.6215863097031723
0.6212758532697731
0.6220570418471174
0.6256825335772926
0.6258609632679657
0.6240804431216622
0.6244710144705722
0.6247877686701269
0.6228576659955745
0.6213188214392178
0.6210474463421866
0.6225130746931901
0.6215378627111245
0.6254126190835478
0.6248215421278271
0.6259136733897087
0.6279389123139345
0.6252909319016753
0.6269676074820975
0.6245736417362672
0.6236806884560812
0.6231635245798739
0.6202435004404481
0.6231209742430868
0.6231236315938393
0.6226090922345255
0.6221343364043
0.6229131359461944
0.625345542631231
0.6246332828230757
0.627851953590057
0.629504750689678
0.6268177856649467
0.6292452943681688
0.6290640292595362
0.6280830504528193
0.6243222986964444
0.6197566573499785
0.620518461975178
0.6176084267304935
0.6203414289599773
0.6232971366017407
0.6225682947606593
0.6227815617645134
0.6246179512993236
0.628114093519913
0.6289887836055419
0.6312463177827188
0.631739657303535
0.6333212846896639
0.6279597986731955
0.6307472449708185
0.6267847734015313
0.6294852840010235
0.6225658570127039
0.6196647906182295
0.6155801658924781
0.6180022146447581
0.6220745538555759
0.6225619193229139
0.623175677298715
0.6265246217854267
0.6307617194192586
0.6342874584010751
0.6333532106793035
0.6352916067785807
0.6219751190638442
0.6277825368708798
0.6315158344374927
0.6265306588292303
0.6286569129623784
0.6236655925305511
0.6173559391669861
0.6149892903833751
0.6156496521159954
0.6195840371208088
0.6212303149411718
0.6228794791033614
0.6273135488607606
0.6329265358287279
0.6355051957108795
0.6364535598646497
0.6357302307927725
0.6151350719246536
0.6177848843000263
0.6246104374137749
0.6310493518547379
0.628997466648976
0.6228263683955516
0.6187630921245939
0.6121173698208136
0.6140399898614185
0.6190201799372127
0.6232719468848816
0.6283683727420359
0.6324916457355957
0.6355698003914874
0.6363858385962572
0.6373448173965276
0.6353839870873168
0.6139244105567003
0.6128675869725403
0.6146458650049648
0.6246201496548588
0.6307847503963556
0.6290217310388631
0.6249576654199029
0.6169192676533425
0.6131737181708987
0.6121516718138531
0.6163875503638562
0.6206245019646824
0.6256524768234677
0.6336662026560992
0.6360834850033
0.6367840846020355
0.6322829027270777
0.616878851980626
0.6147608491703473
0.6124329485866458
0.6132552449914378
0.6147828556117551
0.6175244035083703
0.6305207363779808
0.628265973988069
0.623021240015421
0.6189078769718369
0.6123273603978373
0.6122109844053137
0.6164331726429616
0.6212922611520141
0.6259863140629354
0.6299812936934881
0.6338960522215374
0.6366468526077895
0.6291899230275124
0.6313296835842961
0.620125144540283
0.6187252774544706
0.6153138154171578
0.6146006276398166
0.6120906661743918
0.6123657387696613
0.6123797410318078
0.6172251776167015
0.6276255000946737
0.6248138870069748
0.6242245942950592
0.6155962592913854
0.6109102343056859
0.6134831942744886
0.6122962225508151
0.6172764544296215
0.6199654180758944
0.6310490941132758
0.6322081591645451
0.623681395030707
0.6269936721877091
0.6210743850039071
0.6215297641973692
0.617137691087185
0.6193839004176939
0.6157982273193819
0.6126436134172155
0.6123770591068156
0.6194216623855042
0.6134795395925539
0.6266756007842565
0.6251262612922942
0.6202147565476599
0.6166469012618476
0.6108741756937476
0.6121679361946609
0.6136865170738474
0.612105043608556
0.6185536039354005
0.6282351545798023
0.631742100571877
0.6277373145167121
0.6232438976832408
0.6121472899324919
0.6212261191085654
0.6223425675074199
0.617451169506638
0.6186388868429873
0.6163011666662378
0.6118979093737311
0.6149310368081036
0.6156060666684737
0.6135970695044468
0.624283249589471
0.6214092634819712
0.62132747415446
0.6141005412638169
0.6115358108467744
0.6125246814987864
0.6150140737890762
0.6278458963073291
0.6298020011976758
0.6259687872927939
0.6287542528194663
0.6207062092560675
0.5893495605169113
0.6089233595328291
0.6194649508882938
0.6225596717726327
0.6223072109704987
0.618899470746767
0.6207268112718307
0.618066662425437
0.6128040221229312
0.6154232310652967
0.6172451922298352
0.6124195321427812
0.6244470547291151
0.6209010298482247
0.6184881012663835
0.61661268130846
0.61399682549412
0.6155999597674925
0.6154838404418366
0.6273275143833166
0.6293774526601179
0.6262868534613099
0.6282512352452455
0.623026849446201
0.5724060035520001
0.6061962458979617
0.622125622518669
0.6229565692265048
0.6238266629947553
0.6213281197791126
0.6200844759330025
0.6180371430997401
0.6136026004215354
0.6138893605890726
0.6212686050589474
0.6159433072797865
0.6205634440026199
0.6171255421757321
0.6172807582837685
0.6174913562087962
0.6293571131226351
0.6303546171965235
0.6253260188909845
0.6298823518146544
0.6216027127586802
0.5652959205831363
0.6135853905425622
0.6228688750232841
0.6239714815746968
0.6268725263257806
0.6238453251269483
0.6236126523369876
0.6187922672260001
0.6138454407357246
0.6159110641372355
0.6212704871775344
0.6144068398066556
0.6208579089107045
0.6209816898616941
0.6224848071610626
0.6310541193518198
0.6289842247897099
0.6295200930245075
0.6259865945326988
0.63080169788524
0.6256436043199334
0.5678353626551997
0.5647218571840418
0.5997952385288567
0.6245423982154777
0.6271319148913556
0.6295011649398564
0.6263970520855185
0.625545987791654
0.6233928658214762
0.6116950098925794
0.6175379118445818
0.6152954386051263
0.6218775512316004
0.6117745153425208
0.6219755024420377
0.6253465471191891
0.6324214566654144
0.6309431251642107
0.6339959855383525
0.6323234614760371
0.6328591113870662
0.5636380157118288
0.5641115137356966
0.6108379010570747
0.62200794866325
0.6291711683918629
0.6272445753578982
0.6251350782375064
0.623154439965501
0.6146181865622647
0.6112372860967308
0.6211412917592649
0.6072282318251098
0.6235506695588003
0.6282034552091352
0.631710112799274
0.6331802201713704
0.6328897306034557
0.6324795859754677
0.6364201619914255
0.5632432207734953
0.5646246598260826
0.608910986756131
0.6262376770303777
0.628453712657227
0.626100149559406
0.6226451047289078
0.6135282612909805
0.6146538402619264
0.605078826138728
0.6219189226167621
0.6194873511108179
0.6082353340822751
0.6252880323304441
0.632675071126086
0.6329072792927287
0.6302444134635403
0.6314823964053385
0.6308284499158249
0.6331366385014464
0.5622681461268434
0.5637102090446801
0.5736582849123295
0.5946331064726971
0.6221157316931958
0.6254785211520738
0.6273728953016886
0.6244518116346943
0.6190207894416336
0.6124471133785296
0.60106132030445
0.620657851156986
0.6055217301189784
0.6232319399600185
0.6232457814525828
0.6257155742629553
0.6226286560907554
0.6300000400001327
0.6274912206941761
0.6254345429548244
0.5617848567216344
0.5666044490998164
0.5754021562559721
0.6055505584846083
0.6226917895989719
0.6258912031798703
0.6262020720585258
0.6238661302643748
0.6173579403143435
0.6014147128706313
0.6185567309452215
0.6010145276217348
0.6111326287095518
0.6147777602346419
0.6185336689525934
0.6181698922002713
0.6244011329226035
0.6205192716716554
0.6246363940129567
0.6186128771900613
0.5691392769235499
0.559716690267704
0.558967359941368
0.5899647953687598
0.5810825969432776
0.6172896045928243
0.6245549318923943
0.6253374275003398
0.6205805676813163
0.6001322154750318
0.600207857890833
0.6098154811840121
0.6024097372500791
0.6089871603310633
0.6061463670792397
0.6057429696197267
0.6069978769035786
0.6070086904709642
0.5718537213528497
0.560885758940606
0.5589635079544707
0.5974916971276502
0.5853206219158155
0.5805053381071811
0.6162361121239032
0.6246973904958267
0.6248019136412239
0.6207950665339595
0.5967974208602235
0.6044829064489656
0.5979618472104475
0.6131522876763936
0.600204799753542
0.6039910956410401
0.6060418893914161
0.6065648315267873
0.6046085466174813
0.6069527957096327
0.6069950553219398
0.5681188462891468
0.5788354101107983
0.5591129580801751
0.5594934345340483
0.5886353854667599
0.585675195405277
0.6210268220433451
0.6224299847903081
0.6241718651951421
0.6179282810590886
0.596944465047468
0.6031485302049415
0.6006368643760441
0.6091439260769878
0.603101596533982
0.6022573094204485
0.6098252649552157
0.6097143433644184
0.6110367556572689
0.6145809512727313
0.5723215913200908
0.5812364886471282
0.5634100139267604
0.5540169387451819
0.5711161770956718
0.5960528761416112
0.5885612984825345
0.6199502530851821
0.6220277581324665
0.6224323760158942
0.6180373306228204
0.5975449085187194
0.6059679796588403
0.60003281682585
0.6105964056936724
0.6069374690606628
0.61177601600269
0.6097304892216742
0.615664874837516
0.6199127945598819
0.5793251347118593
0.5700886369930126
0.5869030553107849
0.5608115721986721
0.5551833424448872
0.5710918802789718
0.6162587790810206
0.5941746115366644
0.621500225999268
0.614817696937369
0.6044309045423315
0.6046060298132339
0.6073189625497587
0.6089589347723545
0.6156444412233629
0.6130823566008615
0.6199374306168079
0.6197248542451849
0.6225860685968578
0.5831722472088806
0.5740727452003277
0.590375485607454
0.5544313694618261
0.564911269146935
0.5789632021134802
0.6136353971917239
0.5972565249484959
0.6161482297292119
0.6053320749444664
0.60624978331968
0.6079885487662734
0.6194730663303546
0.6146490080760378
0.6228921517053786
0.6230779392399123
0.6239034301796405
0.5888387748634648
0.5812072574839116
0.5716025795864366
0.5951149620056532
0.5553081433720518
0.5634453580490451
0.6080368299717428
0.5682713328166593
0.6131584502752316
0.6028823613980946
0.6132437832181629
0.6051665918091816
0.6070375993487442
0.6066250066630445
0.6090394081957243
0.6205932038985531
0.614718215618683
0.6236776675860271
0.6241274288778506
0.6244841675686197
0.5924499405507918
0.5850168517616045
0.5749240843708083
0.5985868016149268
0.5504938454157215
0.5559024369123021
0.5692788657774278
0.6080072135938951
0.5724896472316678
0.6091182120767699
0.6040511845773979
0.609553291828247
0.6076376950176878
0.6078327035548206
0.6226163955441637
0.6179058737237286
0.6240413421447117
0.6246365437022608
0.6238416533559333
0.6251268452789633
0.5975097764584553
0.5910753381666176
0.5820291145563751
0.5501706049309006
0.5529845996638351
0.5697141123639513
0.6054225304996924
0.5952224956046195
0.6077476537444291
0.6091408674003551
0.6082969101397153
0.6075080551860127
0.6223024054227314
0.6168642724928936
0.624497811457948
0.6245214261360311
0.6243430986728457
0.6258926144281457
0.601584745515568
0.594667451092288
0.5849142881928364
0.5470559507246567
0.5470718735829501
0.559401776866539
0.5788557193280205
0.6093590005492395
0.594227554918789
0.6133605321148929
0.6058812424911069
0.6116847121338144
0.6095668515981639
0.6194937783858186
0.622847167124312
0.6257267662051392
0.6250564025788394
0.6247639445000721
0.6251398938346181
0.6002939530620003
0.5920566778191881
0.5502428548695552
0.5445444049603216
0.5580198119774709
0.5787595140551592
0.6077037923026222
0.6069820713147971
0.5797836744602514
0.6142637880806147
0.6093592406957437
0.6111182945980865
0.6183646737563033
0.6222787635938613
0.6253184748584669
0.6258648722457169
0.625658959489254
0.625189705677347
0.6031565764762933
0.5951511626903271
0.546032566662126
0.5444762958864212
0.5675245123331889
0.5488453744945052
0.5850154023232074
0.6095541718637055
0.5932105704905914
0.6191440956416173
0.6093916753011535
0.6131934015294058
0.6189660464882906
0.624198194055522
0.6237859178921799
0.6254743923045446
0.6259892276956673
0.6262386379226625
0.6252310040241774
0.6076238696058875
0.6009546448322811
0.5935111905979608
0.5498190381712238
0.542952859601644
0.5637711552950831
0.5488364512288769
0.5837655123512479
0.6074655572662631
0.5907821458885295
0.6237181492653131
0.6179848469743964
0.612753925850225
0.6151236276713684
0.618724123706024
0.6210787479372507
0.6250538122079236
0.623105663070211
0.626082405496425
0.6205620563661598
0.6095868046898865
0.6046159050058064
0.5969448701263994
0.5695395025572317
0.5442173855486405
0.545669919170957
0.5568339644634301
0.5688600802024029
0.5760359473103998
0.5924636251330923
0.6168935037815008
0.6268030518090274
0.6218435100030405
0.6124168173174702
0.6135365437637569
0.6211989443537034
0.6100768262084935
0.6200242340130692
0.6094599831280157
0.6088674551180455
0.6030369624105978
0.5726297701981962
0.5500960638101526
0.5476615642933278
0.5568562918060369
0.5640352713272339
0.5773807004528168
0.59604499809293
0.6312701796962299
0.6257247046499858
0.6199789575387376
0.6142294958169764
0.5914810543999833
0.6066806066716615
0.5960334875448796
0.6005438615710664
0.5879583014210471
0.6119833272988553
0.6035906990939194
0.5506545935246415
0.5556437454361139
0.5484165860714839
0.5660297022565002
0.5850072212770022
0.5718571570971019
0.5937905588719394
0.6339271147286301
0.6292131098060962
0.6234699827043119
0.5917215053262002
0.5657250151168586
0.5767994547702302
0.5576000969598933
0.6140712331953833
0.6066215272722869
0.5587247734231884
0.5507119165094576
0.5655920050435019
0.5828360586790482
0.5724554607571601
0.598695987820936
0.6331920251961437
0.6374639800571291
0.6283707629461464
0.6212190718710373
0.5673018439965809
0.5593962484544481
0.5598696845354927
0.563245546508176
0.5740994608341085
0.6133619123357538
0.6030430977548044
0.563373824315536
0.558742319509922
0.5548015549124551
0.5708030294357698
0.5904643437289603
0.5783878155537445
0.5978285920112411
0.6366908841244625
0.6384634787207393
0.6312874699201622
0.6243841004702764
0.5542092403754818
0.5537587194353915
0.5535086866926946
0.6141431063848701
0.60738733502488
0.5659304460879312
0.5620761569455549
0.555941875805684
0.5723807429813146
0.5858469617627049
0.579211937254359
0.6048322681057633
0.6369104508179706
0.6404541797036341
0.6345454120682411
0.6293404878483622
0.6212727444318111
0.5538468012419573
0.553592630214192
0.5521431747250357
0.569505028310768
0.5618085235866795
0.5783189384794732
0.5907576144377905
0.5847061728645856
0.6078603245742635
0.6404164212727809
0.6374926841216612
0.6407199939962138
0.6359745866182924
0.6311314375513536
0.6231058031188705
0.5556145985700254
0.5547817198763487
0.550820647129596
0.5716792130857725
0.5651957833327148
0.5817795810042033
0.5909196187310163
0.5926899471100516
0.5863812128983662
0.6001985524659266
0.6181891379512415
0.6393144055523471
0.634780693489632
0.6385122110083885
0.6341120556037041
0.6284280701020852
0.5627911131326266
0.5550479209265975
0.5504037978337554
0.577621014701123
0.5836809400305158
0.5893756211642981
0.5950825258603036
0.5928957848880495
0.5874521241592106
0.6083026570909673
0.6174532781166207
0.6395682568527703
0.6283355974443002
0.6379087884594778
0.6336083275022771
0.6282473473159815
0.5704651240773938
0.5638662903459006
0.5509230900756499
0.5602061086623932
0.5763662399101953
0.5808796618020178
0.5942738211602749
0.5986756309457651
0.5968366847804016
0.5915413203177405
0.6077468079714716
0.6241887356249132
0.638324186974971
0.6246580050133671
0.6275292782618394
0.6350435176764456
0.6360903462551942
0.6307523046837178
0.5701886625567375
0.5652553400498253
0.5621184945370433
0.5658750790772838
0.5825684530726071
0.5982106316657446
0.6007588363265681
0.5977735393277264
0.6021952060059349
0.5889887035519613
0.6166639142867308
0.6002446709079414
0.6231787648653041
0.6378192139792256
0.6222342316332355
0.630535757036887
0.6226987097906577
0.6366783496142423
0.6353850945529416
0.6301981988040284
0.5773083907685521
0.5722541895062322
0.5644239263058461
0.5726021828988654
0.6002969156803021
0.6031473888767619
0.6023911708327072
0.6059343863061092
0.5897425772583175
0.6153693551818488
0.6037011850073142
0.6271000413542431
0.6375411590561918
0.6224631177898647
0.6301193482776986
0.6223699104792624
0.6348994890352525
0.6333743701211834
0.5774177245303137
0.572412760227064
0.5769583920494539
0.5996488546248393
0.6079499672654138
0.6027213763829071
0.6093086505325916
0.5861765180818963
0.5956208760604035
0.6074359264096804
0.6218088091073317
0.6268928390341565
0.6377780955848568
0.6231878060951173
0.6260727461729275
0.6214714742845197
0.6235957887201004
0.6353348691000873
0.632714754233917
0.5818079396782516
0.5777469273906639
0.5753576558312841
0.5818068503417129
0.6023796205429738
0.610882446111377
0.6066903965661439
0.6137618755451364
0.5904589021561613
0.5949482534758266
0.60751026299002
0.6196789489394673
0.6366507027883113
0.6378070903427092
0.6237274244360346
0.631190226351011
0.6277415645861993
0.6228543519007966
0.6231550264000535
0.6315022391883151
0.635015312967818
0.5844879262657556
0.5833584713817038
0.5883158638745426
0.5989663735650967
0.6068624826957911
0.61563771095735
0.608652563585299
0.6182458781888166
0.6135584316217343
0.6105795018136629
0.6261528555264406
0.6353566244967256
0.6369933174526456
0.628250687672594
0.6328561764906419
0.6245655349165676
0.624256054964899
0.6321380883128098
0.6327894162770821
0.589354653654656
0.5863962750174692
0.587047298452742
0.5999424792624936
0.6082176302490602
0.616364794754667
0.6091279724103653
0.6223601970731056
0.6172960201246632
0.6098931450101061
0.6229263566797932
0.6371756184396428
0.6304141422284572
0.6382244245140408
0.6256448829809695
0.6281472431075834
0.6248595583286415
0.6316706390857187
0.6341894995502836
0.5941652534732805
0.5928771954660095
0.5950537220909984
0.5986325731199353
0.6049578986446539
0.6123374373733627
0.6204911368937874
0.612022139397623
0.6228954746280008
0.6250993159858634
0.6149398975401004
0.6271388098105711
0.6341383920328533
0.6382058189661765
0.6300311245444447
0.6277161278744883
0.6238073984827858
0.632619329530378
0.6263029035805722
0.6316689198612078
0.5970256591121925
0.6001033965466572
0.6029003053304464
0.6065772356208743
0.613803315096786
0.6187739681048173
0.6234637156175813
0.6159319554768359
0.6264023357100683
0.6283116679046683
0.6137593352238083
0.6232979483507441
0.6335559696100055
0.6400983443990208
0.6218707471680284
0.6273375818865886
0.6240059640781442
0.6394613576847006
0.6306278055597533
0.6257324949192964
0.629996568333633
0.602920938663539
0.60872193452391
0.599296445715893
0.6112130792773631
0.6212300179400312
0.6249682037809251
0.6204500196752371
0.6312788144693007
0.6289421342628776
0.6311045775574554
0.6178653284090793
0.6242676334295402
0.630084302975755
0.6394565230143224
0.6241711966760053
0.6083156871423869
0.6240082628519978
0.6236798629442327
0.6419183277623798
0.6334432920385373
0.628797202673154
0.6254142304572124
0.6084604408163016
0.6138564784165608
0.6067085874652344
0.6130714745657261
0.6201217068694028
0.6287441171610337
0.6220938305068243
0.6336556753578545
0.6305734348389219
0.6350595240525216
0.6161939797856597
0.6171827695135255
0.6288286702965034
0.6418473865808225
0.6033721939798682
0.6064959022363622
0.6232827221453523
0.623218778478431
0.6426071222275228
0.6396354143889136
0.6298221035963339
0.6227956037628537
0.6187651669884078
0.6116391179974981
0.6068138051296563
0.6228281658201194
0.6298916399333969
0.625291191797025
0.6331866733518745
0.6358892685494516
0.6372336366327777
0.6176814687262144
0.6240583196624183
0.6363707853872911
0.6035501699252181
0.6167772300077838
0.6221243027413188
0.6228827838227138
0.6450568264548991
0.6405948000977668
0.6354221653561067
0.626495874971446
0.6159121985376118
0.6218188890229045
0.6190218630520085
0.6161160996413327
0.614013703750243
0.6274409241013733
0.6306592415817287
0.6231581408913655
0.6353313064132541
0.6371132640060172
0.6393071779143434
0.6157706767685389
0.6223215433108427
0.6150361997850613
0.5975333610762381
0.6174789546376611
0.6209028544653648
0.6208338050909713
0.6446380043967964
0.6461091617879641
0.63579811067754
0.6290940156400967
0.6131714006522559
0.6240079239134261
0.621512280646606
0.6173445016908737
0.6284364495032908
0.6354788934669875
0.628702908148866
0.6395563163822355
0.6388979049632437
0.6387388973269205
0.6124051434937622
0.6195405572367415
0.6094612791933084
0.5984056619630109
0.6112196799611346
0.6225945216952266
0.6202513551320761
0.6379184462621302
0.6465265424440464
0.6398085220130058
0.6274335160135349
0.6042325804977938
0.6261901540106211
0.6223496005376552
0.6207682323270054
0.6325354408090703
0.6356797706629242
0.6247948242772042
0.6361251021334828
0.6384260294680164
0.6372842616736012
0.6097046232399389
0.6163679107364628
0.616611383582317
0.5996190058716401
0.6178381544718238
0.6234155289670541
0.6217045601255329
0.6181941753041087
0.6223878804570316
0.6406516287913778
0.6461170245670782
0.637769098718274
0.633323578967841
0.6031827519176025
0.6260335773054343
0.623588918605917
0.6323083571977299
0.6379206642582159
0.6315313171805459
0.6362977668581536
0.6371379795554289
0.6356132733592257
0.6076520212499078
0.6154385951783485
0.5972580876655113
0.6132853839967556
0.6238105163609887
0.6231744925715664
0.6149328938120867
0.6203796535056588
0.6356836732440794
0.6481117707871028
0.6404963758067392
0.6311919046967334
0.5935022390981377
0.6289149586756119
0.623084994825533
0.6295485428820397
0.6358507586806667
0.6376899283291444
0.6252824049907191
0.6324919061216777
0.6367477239103579
0.6327199488399669
0.6175926970249963
0.6004771962107287
0.5990774000351505
0.5970520688501145
0.6177874599027418
0.6237278276052863
0.6244191708719639
0.6221679576422094
0.6148263717183047
0.6244947129063462
0.6002491093605665
0.6490896924434808
0.6462179080843553
0.6391854875882763
0.6335015743782547
0.6288539797486705
0.6341383896831818
0.6356579746558472
0.6377360128602324
0.6319067364504268
0.630074097657028
0.6379611071914496
0.634477523562866
0.6318298178804553
0.6160576172821721
0.6063146963439218
0.6008373117594362
0.5959967555148491
0.6137394643730897
0.6243313781237998
0.6247950545430103
0.6243504825082657
0.6176026974039257
0.5965836026853343
0.6232744264771823
0.5996282807850878
0.6438228552235675
0.6480526660647649
0.6449919478180194
0.6365671950164982
0.6289578984820435
0.6350759298996699
0.6196803619566424
0.6368603669197351
0.6375062179514632
0.6285214066226894
0.6278683627569849
0.6368187277989074
0.6340721810807273
0.632400332526016
0.626687249399582
0.6237831447739961
0.6067603158700108
0.6023039044230312
0.5968388753024322
0.6229084001440061
0.6244192902588863
0.6253794192100399
0.6248322713581882
0.6159669896624729
0.5789849643307681
0.6178381525142977
0.584855928477502
0.6497796056672476
0.6455061611194631
0.6365976205293952
0.6299837237156211
0.6383150820354165
0.6180459843843984
0.6366595959746718
0.6373621224679259
0.6371259349630606
0.630343431118889
0.627879564353324
0.6234755281975639
0.6232929550033359
0.6206947662874696
0.5967019383943802
0.6196780920612613
0.6248761993739718
0.6246289065929924
0.6247058652264577
0.6260045411233058
0.6250191743216073
0.629500999663182
0.5906544624439648
0.5920948368399354
0.6099157834748949
0.5851982371309988
0.6494682623793832
0.6479498337644402
0.642685956656377
0.6328280416226525
0.5700792157479503
0.6354875617670352
0.6372369565126652
0.6353710383492739
0.6300382966310193
0.6285195800136614
0.6232186878530788
0.620945359729853
0.6173520641247772
0.6075867883277419
0.619607423843511
0.6254008013149128
0.6245995070030712
0.6249265516779972
0.6244731867846341
0.6252845179874992
0.6254705554816131
0.625440837265789
0.5919521832255545
0.5994343024008162
0.6306749391134974
0.57283332629265
0.6108523943722586
0.6472844486337161
0.6471782440662786
0.6440150664880557
0.6341192126260312
0.5727354516680622
0.6238580053932928
0.6378261085044966
0.6368432451402494
0.6272195350124845
0.6241803593578932
0.6204825201147035
0.6177752718725369
0.6170619832557666
0.6184261147212252
0.6074343754429112
0.6168590177401561
0.6248638689114422
0.6255323000607519
0.6239204422171588
0.6242994486666459
0.6235188920442676
0.6250657187015316
0.6244351874929581
0.6335288571437586
0.6008617599158615
0.599615409977225
0.6147392323088372
0.5752381522623783
0.6111935301637857
0.6462171283478918
0.6484092176867396
0.6405897005902533
0.5137613114711115
0.5961238866203133
0.6167294161324859
0.6276165339991372
0.6253221167818919
0.6285712893456621
0.625240395432098
0.6183068602914342
0.6188706203475817
0.6200365522220729
0.6208190601506225
0.6227011837817478
0.6244085839283346
0.6251251223889243
0.6236786637607951
0.6237019297493406
0.6242724112950139
0.6231367545148699
0.6227639955747147
0.6234380047620148
0.6243875584113348
0.6295891427528874
0.6006308096987721
0.6059769726517262
0.5641551447104207
0.6386587751999147
0.5989110745294576
0.6214724106833976
0.6489716765624187
0.6431811154756848
0.5174793264520805
0.5182179125233983
0.5953450120188505
0.6252496336863331
0.6226793575538034
0.6116856629311183
0.6216577091772544
0.6189417915582319
0.6175582438222884
0.6221419596478011
0.6197784842870369
0.6250834134483962
0.6232665931919793
0.6238313219084535
0.6240624580473533
0.6232228351717433
0.6188156402074915
0.6218726000051452
0.6242706950372252
0.6035117316075532
0.64132560582346
0.6059509209208157
0.6200353188222169
0.5630212956895373
0.6372476903467271
0.6034575823971583
0.6185171602176444
0.646216719011148
0.6531399640806431
0.6450247559942964
0.5095221141437638
0.5170679287322385
0.5242209138456528
0.6224685610598305
0.6188607130018441
0.548307787114628
0.620806758582566
0.6176824156492512
0.6201149518660298
0.6261213887886585
0.6246488533594141
0.6241683504192351
0.6238133925301954
0.6239606988758518
0.6234927580658722
0.6087982441774616
0.622440063005011
0.6238517749371032
0.6244953529034152
0.6009051122196819
0.6368497352884778
0.6117911649104506
0.6258285745190511
0.5647656040302358
0.5950708953660766
0.6115406246591476
0.6239433296604425
0.6475454765600372
0.6505727838272907
0.6446060677203019
0.5083698712254644
0.5235103093145927
0.5264784189457767
0.6217615564297972
0.6059231604550498
0.5007858603639405
0.6198569758635748
0.6180172304841023
0.623050004220157
0.6280349423184537
0.624091274232298
0.6249257252400819
0.6238275538837889
0.6240602408893613
0.6247758011680332
0.6128511416901552
0.578928779333617
0.6223492114285289
0.6238543494009832
0.6243797131662977
0.61087931459933
0.6417600472305542
0.6196613683142094
0.6293355478184401
0.5498910374351736
0.5994860178387781
0.6161504374276612
0.6228961714812143
0.646499983914874
0.65109315404462
0.5019774174134408
0.5424548907372598
0.5132260406973196
0.4994994812128546
0.6202334223182265
0.537189600404741
0.5029605717683951
0.4974604136936763
0.6202508413747865
0.6203384627725352
0.6236652984926818
0.6342378476404785
0.6243796310373245
0.6244491354413756
0.6253281164490617
0.624192437804942
0.6243167274518311
0.625162522178266
0.5753110181409585
0.6154841964862861
0.6234575271845427
0.6238893377685913
0.624117201414444
0.6037060607154873
0.6364353908819114
0.6221113704378418
0.6400019306035936
0.5830701249057774
0.5509674413125386
0.6180691696311318
0.5709451920269718
0.6446317785844005
0.6461311300211998
0.6488437754039107
0.5474760051215528
0.5183804152295816
0.6114090747715129
0.5168943656387343
0.4798363749251764
0.4965058831392604
0.6082250777515498
0.6197688821368587
0.6276951385883176
0.6372088536283924
0.62444028793946
0.624790908403159
0.6229760212907309
0.6232365163866842
0.6242896198852397
0.6243490920856941
0.6218995665636819
0.5523891385522272
0.6057952056627511