/*--------------------------------*- C++ -*----------------------------------*\
| =========                 |                                                 |
| \\      /  F ield         | OpenFOAM: The Open Source CFD Toolbox           |
|  \\    /   O peration     | Version:  v1912                                 |
|   \\  /    A nd           | Website:  www.openfoam.com                      |
|    \\/     M anipulation  |                                                 |
\*---------------------------------------------------------------------------*/
FoamFile
{
    version     2.0;
    format      ascii;
    class       volScalarField;
    location    "1000";
    object      T;
}
// * * * * * * * * * * * * * * * * * * * * * * * * * * * * * * * * * * * * * //

dimensions      [0 0 0 1 0 0 0];


internalField   nonuniform List<scalar> 
5975
(
227.2992400735441
226.2430396627184
226.1528713998776
227.1925141143271
226.484019297472
228.5830711452038
228.1643735763166
227.8107020993205
230.1114731227901
229.2605243057098
228.3804052603573
227.9735779986794
231.1391812870789
230.6750857809011
229.8414473947498
228.1445740485461
228.0829500046468
232.475658864106
231.625012621105
230.8767147933908
229.4697939841329
228.9930746556269
228.9588244067508
234.0531802287617
232.7942481856172
231.9064124287648
230.1087828613515
229.4737600651455
236.8435531849831
234.3026236171087
232.9506148644667
231.3682525825201
230.1947330806682
229.4719581945502
229.9359817338849
237.6536193488865
237.2093945799108
234.0394781861121
233.4957379759484
232.064459866686
230.8096328280411
230.1305285707585
230.3080075724599
238.7612275535171
238.036022640674
235.0525422414141
233.1583098543984
231.7939168779468
230.7608211110662
230.7059233820934
240.0450297469148
239.0263726996328
237.840308996579
234.556023301185
232.8180997179446
232.086778414693
231.2560911923199
231.3325679909058
240.5344310147449
240.4728163824975
239.1022176259659
236.6472754031066
235.360993637699
233.3665701719801
231.7851374794964
231.244457500639
231.9484936986084
240.6447058470651
240.8542160202006
239.970474552657
240.6590931171095
237.8015571892293
236.6817165583716
234.6977986701017
233.1842869300607
232.3663344177062
232.2866485912202
232.3400363837511
240.0622573555129
241.0030280809005
240.9629492100353
239.857680228713
240.4265381363315
237.9977695540177
235.3299813473213
233.9785493571138
233.1438981406174
233.0185853430787
238.2977743988629
240.449786665615
241.1065358794438
241.1102122501899
240.9201566443641
239.1168444115389
240.3835212212078
236.9689196071474
234.8798799478481
233.955654553395
233.253555921064
233.8229137061783
233.6124333816454
238.0258665457819
238.735102474627
241.1438403967749
240.2619909983078
241.3690998703412
241.0455352280477
238.9008160697711
239.702646671038
237.4560298865808
235.7460209491023
233.9950879420367
234.5810508460852
234.2776523653553
235.9624374625409
237.8882701909459
238.8412254661724
241.626900433183
241.0957432392439
241.5342539854723
240.6019050547905
239.610190102296
237.425747434169
235.1095941892001
234.5720724552118
235.2783107909588
235.2280459328477
235.6907796467477
237.7829424373529
240.556501826144
241.4805667685831
241.9632849450116
241.8345786250769
240.7717461234563
238.5669427951029
236.5620451184979
235.7336885263888
235.2155322345526
235.5255310289569
235.3059427792761
234.9973341860118
235.1288897951981
236.540409311779
235.5073476688399
239.0601676575596
240.8262763421331
241.7421435150388
242.1676214217922
241.8740884394116
241.6046101607641
239.5752627770538
238.5541089157934
237.1535307380646
235.803168825566
235.2015115645884
235.6744653621089
235.1618764321716
235.1733203123177
235.1543411890637
237.0803575552191
236.4644966920487
238.3811434718544
240.0906898232043
241.5065214237
242.1195314465276
242.082646376233
241.567380999914
239.5096337671277
236.9681967329797
236.4157589735848
236.223337599188
236.3676482407374
235.1881287156582
235.4269320257115
235.0269082486948
235.4403637268057
235.8237697389343
236.5474206808249
239.0880670677027
240.5637528740956
241.6957985131873
242.0765025626316
242.0493492470672
240.6801042756308
238.1237541837779
237.0655039153803
236.4378440412844
236.6254249503073
234.6445554713726
235.009715451799
235.5692507222155
235.4741738188737
235.6382213829228
236.071852175686
237.5920390558372
238.8128680816881
240.11095969628
241.2340583803517
242.2157973198319
242.0086506146919
240.6555208118937
238.0771379464578
236.8858410279313
236.86988155332
236.7025797555544
233.8821314287813
233.7239000825648
234.5459574309654
235.7859986018471
236.0789386853666
236.7628254104677
237.7636883262504
239.9070578441715
240.7084423153763
241.5833225824275
241.5557907359394
239.8035344924407
238.5530557073105
237.2316561394615
236.7297995438166
237.1237051164861
236.8643707409422
234.1082491447386
233.2796388940906
233.1719266162073
234.6543495996623
236.1518741387664
235.4276364976891
236.9159847534659
238.7227138219443
239.8277547377376
240.2901813708431
241.2160293409179
241.1923570419273
239.8971060538657
237.7898477670608
236.7162542491898
236.9797566514074
236.6630640034313
234.3601437222409
234.196832163618
233.2646720531526
233.0738545007845
233.0856861867016
233.546374798336
236.2570519682319
235.5451488677652
237.784087748458
238.7749378205999
240.3634763911818
240.3163616500739
241.0911901052255
240.6638605998757
238.9952213742879
237.9599338206323
236.3557464539681
237.0127434885702
237.1914412632079
236.2548641827021
234.5209636410449
234.685580400621
234.2035469679042
233.6991831854859
232.8867371159645
232.8054865164505
232.7287143666753
233.5403826917448
237.0290147971595
235.1425765013063
237.9701298067006
239.8206490817588
240.6019010210452
240.540920662869
240.3128912951982
240.1759717329764
239.1111786953411
235.9806655896248
236.2855485828743
237.1740237590314
235.98395033991
234.2912805027202
234.8196131576935
234.5349918472899
234.7834504129705
233.6905617144633
232.8281468198964
232.7286069690117
233.9576697986554
232.9444037919642
237.3230056525536
235.9823007411327
239.2969790849743
239.9976815449397
240.3904529838539
240.6849949831227
240.6076514922782
240.0508781958603
238.4965593208882
235.8558255069983
236.0101203941617
235.6352631915128
236.5194491866422
233.6918282924084
234.3590057524997
235.0307393958631
234.5539728996925
234.9418547460232
233.5345567518331
232.660112149729
233.231456792212
233.5015778073927
232.9933208806869
238.6081965547974
235.7005486973159
239.645782366599
240.8124172063959
240.1278661144881
240.6336634186814
239.0334142614954
235.9285800347234
235.786185682228
235.4874862494598
235.6551770470513
237.104304521339
230.4668438154804
232.7670381342251
234.1848850608957
234.9162449287047
235.3861895134256
234.2131028670307
235.1045857589636
233.8391933234549
232.7824675837456
233.2003049941484
234.0613757373763
232.8083900250667
239.0405693164553
237.0845226664957
240.9455359015378
241.1415082128337
239.474542299992
240.9983707902292
238.4982741398802
236.2961468682904
235.7149999881885
235.4340301768449
235.6070630097091
237.0613947308883
227.2840104021431
232.3479111533956
234.9453644232124
235.284264782244
235.5712809372534
234.6103051209101
233.8993608323918
233.6195677360944
233.5911967963199
233.188289830947
240.6449180882205
236.5117378543028
241.2856003762352
241.4679049336109
239.4787230652705
240.7632074162967
236.6953345351896
235.9121608360438
235.3041713172149
235.775889200817
238.3400875745138
226.0734888976762
233.6176001086875
235.2484661686699
235.7804331433771
235.4535840821058
234.7048310030091
234.51480732904
233.8413410400743
234.4750979231959
233.5193599532083
240.9657556007007
237.8180462503948
241.8916179021326
242.0001347537391
241.2668487502381
236.3239544198196
237.6016243004426
235.7198365415464
235.2730742077148
236.0072837273376
238.7064614770109
226.5131724451253
226.0009934510624
231.5495068056952
236.1231938640554
236.1018351632317
235.9298976862487
235.1590859993626
234.7307986127512
234.5729924156379
234.2273721827225
233.9021244476816
239.6635273057391
241.9464286014922
236.7954730442787
242.1450620879249
240.2961333580517
236.9356028544716
237.8873356895764
236.4325730985929
236.3230179833708
236.7114171457766
225.8390118569
225.8810474772479
233.4492336477825
235.0510325045381
235.4082923580809
235.0350139124835
234.7909060298777
234.579322115413
234.5395401075075
239.9812340331186
242.2344024795117
237.0585274288309
242.3292246599854
240.6995052404535
238.9920060766086
236.3466668445831
236.3294889161558
236.37082041837
237.4832436315381
225.7803410810098
225.9660096443129
232.9266521549304
235.0466743613206
235.2324869546921
234.9828247060481
234.5735109455523
235.0634815496026
241.0719808237268
238.4827335907855
242.4416762114784
241.8687108560584
236.5342903852167
241.8475229321387
239.0741419766872
236.681234687904
235.935714277937
236.0982016188942
236.1337864796675
237.7707302788628
225.612533845134
225.8050207061341
227.405499156901
230.5092548757246
234.3075642410431
234.6833818030744
235.1372113098182
234.7850117453137
235.1890105493228
240.8733412138857
238.6825512445411
242.0898879345412
237.1679814929805
241.5587075953527
240.2962569016508
236.1919677903745
234.9452935767072
235.8890023100187
235.6175684810293
237.0150813305756
225.5048362140932
226.0584479903466
227.6891831925581
232.0279819885012
234.4515015909251
234.9405436022042
234.9832708728594
234.7447138326932
235.7268333681269
238.9130061610656
242.0943258377521
238.1982716852077
237.1155685023869
239.0207730798294
235.0041042225545
234.1584197715187
235.0223338211358
234.4356534959704
235.298808272147
236.9771358330601
226.7250774712792
224.9474627014397
224.599933771443
229.4904887408639
228.5876890274026
233.6448000559897
234.8699488107756
234.8571828337433
235.2994109925569
238.9434862575117
238.6834341873275
238.0445374048408
239.186126633918
234.1116915102145
232.3667939590753
232.1470835341702
232.4412281412646
235.7084732754304
227.1174862992525
225.0033762900477
224.507844004103
230.6455177667428
229.1328171169737
228.6054397992098
233.4985975679201
234.8059772070539
234.9934334592393
235.6952398652541
238.2253385526992
238.8749782231379
238.6598388444385
237.9466884968225
237.0489910835144
233.0631428443598
234.7660984687689
232.3191677596655
232.8477371625588
232.3351763493515
232.8086756872783
226.3277882149242
228.2925650275062
224.4783804176944
224.5856997319997
229.2609334731728
229.3056983045312
234.3296645542681
234.6151629893283
234.9342207160564
236.4625137102869
237.6661209428202
239.4135995499611
239.02765872297
239.0853862829922
234.4310839546264
235.2659551563666
232.9030498272247
233.6565253985293
232.909827706065
233.5581241013536
226.8904867008065
228.611386392423
225.2222073704738
223.6672637594967
226.4552742731565
230.5841642381504
229.7697854550537
234.4196379087006
234.8881801071706
235.0395412686468
236.2064697620859
237.1279497278849
239.6401551959938
238.5539038349372
238.8407571546053
235.2406588803765
233.5863374074054
234.5004294004106
233.68683240442
234.4696044696712
228.1474137197565
226.2778015938372
229.551255988848
224.8808682235514
223.9302460836159
226.7946241445881
233.830889803599
230.5987001916938
235.185271058312
237.3989214217582
239.9198782204782
239.0875322989938
239.7432453798829
236.4391432787197
234.5081288541816
235.549462960585
234.4115976703962
234.4816236386656
234.7568339943055
228.662556585575
226.8854273632827
230.0674838424622
223.8893395571564
225.555667674636
229.5926888539237
235.0415244847117
231.1283840734193
236.8923977318588
239.9647497500141
238.2928277650027
239.68061563084
234.766584111617
235.6265246193879
234.8322338690191
234.9475036219602
234.9762791463783
229.67951479204
228.1099328609843
226.3963368411126
230.8465825337601
225.0071240962438
225.5459830130957
234.7055414271694
228.5584669458279
236.7445130785924
231.9536520986707
237.6124514796564
239.9185236844962
238.9841466293225
240.1107006024237
239.2804100965712
235.4741256133265
236.5238226763058
235.09852545877
235.1181720190405
235.0329584961781
230.1607945275364
228.6508161666335
227.1029287714417
231.3567640983045
225.5917228790556
226.0217496311489
226.9149283563459
237.5714531603623
231.5403049676567
238.1793522567939
232.184820138284
238.4583730640726
240.1973536306093
239.4601152017667
235.5367713990839
236.3040012667616
235.1048622202917
235.190286058084
235.0705947226946
235.1528547747458
231.0840082453342
229.6846634895308
228.1216326163836
227.4671284427452
227.5923044374594
227.4961685764092
238.5744315100627
236.794792019432
232.7730577478445
239.4989016185775
240.4030745600971
240.2296807514441
236.1452447765554
237.3955168921694
235.4019287164963
235.170552865806
235.1242360631656
235.2298639624747
231.6474182554058
230.1908529275518
228.7667213843938
229.2231757013309
228.7150659032503
228.3658744951668
228.7350066861928
240.315463807592
238.7653447574708
233.6103433227105
232.455514425746
239.1795091773828
240.3530066922786
237.2285053494177
235.8816727643178
235.5264593166468
235.2317943612729
235.2051208767546
235.0978932162154
231.1622202973834
229.7092564979548
230.9170909707223
230.182489740547
229.9413590952127
229.7306856611575
240.9210496797938
240.4403516946786
236.0663333765734
233.7763373537974
232.9308407635536
240.5462294754735
238.1696567163023
236.4386490235622
235.7704582254907
235.3704381548329
235.3255097827551
235.0687257935243
231.5430200228798
230.2442387997104
230.8968730412473
230.1440805470557
230.8265488243672
230.6264429736046
230.4002891388083
240.1110493025441
237.7501773784594
234.5132106970721
232.7819639536629
239.9146793374403
237.236286927873
236.4984672046939
235.3986420943922
235.3876847169035
235.2156146382843
235.4007693985309
235.1377839091169
232.3004382563747
231.094549918052
230.0825417090947
230.8706609935861
229.9577100559516
232.4319120871029
231.3784774039346
231.7623761481688
239.1206603524959
235.9573484609049
235.1907414718334
234.2121043905529
233.3005339753144
237.7569163232023
236.1042902349986
235.5468675949336
235.2756424261915
234.9164520375687
235.2427337994966
234.8210171991513
232.5038842839622
231.6786950352911
231.2481736417011
232.1943314783329
228.7533751127141
230.1381132038177
232.5375781010372
233.1415416017804
233.4833734069782
231.8720055895149
236.8647770883456
235.7362876399341
234.7374433219995
233.0166475502404
235.0297379804538
235.3299594287937
233.2831446976782
234.5099370947754
233.2163228163965
232.3381828679387
231.4984250772283
230.8875121549092
227.6134251062396
229.5596224526097
232.892181515697
233.7579401826638
234.8180051013424
232.7862050460915
236.3710512438011
235.4416408580644
234.1970666053827
233.2522715798055
232.0326359120334
232.357269899093
230.8769764473868
231.6006991106565
230.3168808017273
232.8056699991495
232.2050823160949
227.0863144838558
231.2179429767154
227.4165267352351
234.2194519247688
235.3838887162057
235.1825102514171
233.9286290622442
236.8090336386303
235.8738889205786
234.6591836974346
230.1483591400816
226.2702455557277
227.9140835372906
225.6518967548915
232.9824777058016
232.6830078699657
230.4738616656554
226.3723013639774
233.2616608166816
237.0199588557935
235.4266652840125
234.4521273431916
236.588590920432
237.3083809500194
235.4759200108953
234.2655385021137
226.2486567302783
225.2079365936127
225.2358762112973
225.5738698930178
228.6271735268961
232.2515468613612
234.0349425020393
231.4880741362162
228.1324404859016
224.7927693181785
233.6751346730263
237.7014435526171
236.1909707135327
235.5698892509971
237.0602188119754
237.4761327955293
235.8316600872967
234.6797180461705
224.3457599581434
223.9803837494745
224.1627476216846
233.5546482069392
234.5252299583636
229.4908691769592
227.593000084356
224.5676708598404
232.202342708478
238.3997810448868
235.5333493441829
235.8745754300121
236.9569043136706
237.7809854185177
236.3737484985483
235.4392906762456
234.3396359692227
224.2644485916858
223.9301811813528
224.0072831617906
229.7360679891216
226.0559653617802
232.7882868634334
238.8450335143266
236.1203245914481
236.5992308161797
237.5012825920922
237.3434574842742
237.6442195365824
236.428606911891
235.6880076123872
234.9180070507138
224.5519667301887
224.1852007552867
223.7929242802564
227.9305598020256
226.2835256303332
230.3713120659644
237.5162095429375
239.5916894426616
234.1624676231241
238.9713653329184
235.1730799941883
237.0159841272893
236.9374034287779
237.3234860241739
236.134043929409
235.3517482759499
225.755041445569
224.2363973045598
223.7320822712769
228.898763505661
230.5463286820596
235.0647418186072
237.6476446092009
239.8701945710882
231.6401899048767
239.0480720099181
236.2267775085856
236.9314297871966
235.9119583087843
237.0289327848132
236.0765606984137
235.5887952702884
227.0590340264689
225.610830627238
223.9152868999352
225.0499030695889
228.2909966220181
229.1288769157479
232.7034062146538
235.1714443506496
240.0975985990124
231.0712117453423
240.1357232485822
235.8240355251241
236.6461201475583
235.4882115390852
235.6053761289375
236.5013598447888
236.4348190670985
235.7178437622909
226.8083679320546
225.8179385669397
225.6940802429172
226.0705849602224
229.0302829603955
233.254087048174
235.6353654723313
241.7602669736225
237.4804154203097
230.2212236712269
238.3038281849368
241.9906351794133
236.6368426980613
236.6133671389385
234.9873747530031
235.9585804065042
234.8830090454859
236.4406049580777
236.4513882927504
235.8446996684663
228.0161740234118
226.9485585241351
226.0390097630019
226.94475809512
232.6589698299491
234.0140293898106
241.9695392984031
237.2541738734975
230.1710948052066
239.6802842576258
242.2502697013093
236.1035904612397
236.7181265289973
235.1708327799136
235.6959414783326
234.8004228685355
236.1710200676417
236.1796536541941
227.9353906117618
227.3146956484355
227.6777396540427
231.9295772530745
234.7940175988342
241.6908899298556
238.8544841358248
229.5367201753946
231.1505445996818
242.4470051716949
238.3486214787007
236.8449335413665
236.7688211072581
235.2826352401366
235.0248767698888
234.7112401317495
234.7954057513493
236.1789571384323
236.4860511744914
228.6433625416458
227.851048302238
227.8302531866993
228.4059028572202
232.2162904729159
233.9351240580658
242.5740453286254
237.9854963748303
230.10706989118
230.9175449826134
242.7584143744927
239.7443824474892
236.6534411455348
236.6809076744782
235.1355169260389
236.4238710864734
235.0702991912604
234.5803518660165
234.6100687102592
235.651831142161
237.0320855826118
228.8816053296822
229.0555751319689
229.516118417514
231.5248344207438
233.0029713966024
234.9244780776722
242.4721880757482
236.1416108395764
240.2026655833013
242.7045274452274
239.4602837517817
236.7111898527019
236.6521995481247
235.8292728849031
236.7120907951062
234.6806932154194
234.7679722035583
235.9667692603017
237.9238727209256
229.5990733391839
229.2348051155004
229.6318238153645
231.5790977023893
233.0962847297325
234.4557710453368
243.3959098858181
236.6854325947397
240.1746464754647
243.667582336853
241.6031810450121
236.778111826079
235.9593812607766
237.5620324572586
234.6786364907247
235.5407167784765
234.4468304652817
236.0466606910278
237.9913515213099
230.3811110925926
230.1697993956034
230.8602617343174
231.1111066068744
232.4397251059827
233.7458761277014
235.0665825007517
242.837006461093
238.340392325347
236.1679365477403
243.8861200690557
241.5705361543988
236.4960896764146
237.2970095631686
236.3814817219649
235.4085734065747
234.4417679809469
236.0875173868371
234.8238823625118
239.4324992185638
230.8535009998685
231.6292128901139
231.7314257162903
232.5194213169793
233.8695717318515
234.6580831934013
235.575323622233
243.6518140296308
239.3805968054049
236.7267474412741
245.0682372674313
243.4540910992976
236.812632869843
237.4605581161343
235.1170261074836
235.7449204411487
234.6670073577306
237.2398276529352
235.4311954164858
234.7935597445071
238.9738173157441
231.5636881443357
232.4728070328337
231.7076076158463
233.2677748890174
234.953513285154
235.6204105984217
242.6229788574451
238.0835099226521
236.5223585852944
237.4053601539254
245.4816797744483
243.2870661806552
236.4033389291564
237.4306812427053
235.816254313253
232.8295349038688
235.2110861617965
234.6548790858832
237.5293719485155
235.8482278862299
235.2881026976857
241.2034885882188
232.5012667573035
233.3847089371259
232.8416281422366
233.3832070064556
234.5174505341776
236.2299778264439
243.9104505958004
239.069889340324
236.7064000899324
238.0106626186737
246.1477833288851
245.5696345178821
236.9241133724259
237.7868897524381
232.1160414859401
232.5073363195541
235.6917545626909
234.9835288952274
237.2376351265058
236.8052739381837
235.5160267292923
240.5935116218042
234.0095071454585
233.2656765459727
232.986232687931
234.8175916513109
236.2795581222275
242.4159408322962
239.8312500601898
237.5837910865048
238.0179136483301
245.8772968967176
236.3412644262666
237.8223005477343
232.1032369984832
234.076528888795
235.4901072007119
235.0262901674145
237.7187470339837
237.0234117975723
236.2982366427715
235.4251753576874
243.347182996888
234.4094627940133
234.2351860391281
234.0109777322114
233.968058124634
235.6485205365822
236.1815045098191
244.1043723852984
239.8594386432433
237.5962889536137
238.4446505718976
245.3111275078157
237.1302720369451
233.4177288579382
231.1559279759952
234.2258311693502
236.1132779115163
235.9069406266471
237.4353197458882
237.8497669974356
236.4949694634705
235.9913659378529
241.794158680889
234.7852914137269
234.5801094926215
234.4066005618691
235.7035765937927
236.9649655490079
242.4695756643779
238.5364602764477
237.9315758961145
238.315515313476
245.5907409913343
236.8406273049461
232.8880672350405
231.1948774292683
233.2403309474123
234.9870601281645
236.2304917419991
236.5432540931282
237.9687838375818
237.2201589146358
236.3166501693836
244.3780187508181
235.1060142595157
234.7567974821252
234.9061299765534
236.3430451102379
236.7717122591009
242.4498023596368
238.3827114451898
237.5371199977308
238.077103982873
244.7345329760119
238.3665965785851
233.6874419937312
231.1427578180884
234.2374663383762
235.1045278661604
234.8555014934065
236.7787145460634
236.1271014767084
237.0760731284179
237.8126667664851
237.5174795926735
237.3447469198917
243.2039169331296
235.0235192292853
235.2934756234465
236.3174744916285
237.168188963318
239.0146170770362
237.8563704268139
237.4776717261976
237.8747242418353
243.6394910583122
239.0945238934788
230.3370542449958
233.3778603359491
235.1816108735443
235.059373360376
237.1514108791312
236.9576065063358
236.2316774436289
238.2448054501827
238.029171323907
237.6611649496886
245.5133836224841
235.5307937208372
235.5406506348231
235.460192241316
236.8313888415689
236.9895375959873
238.4219233572003
237.3884262272944
237.1363395292918
237.5941868072861
239.9967156981693
243.7955099498567
244.7410794549484
230.2643788156132
233.9051412331874
235.1721113706053
235.2504803971961
234.8084319640718
237.99951983235
237.5560507157633
230.8269186436426
238.0750762564574
238.3439168214503
238.3874258998731
238.2888189531175
236.3519655017359
236.2997012495585
236.8740479993145
237.0198832894395
236.4244563286663
237.9220335794255
237.0013960111365
236.9927403622943
237.253594889104
238.1178649334303
240.7440042375171
246.1056209611218
230.1023616840729
232.8515499486265
235.2474545392965
235.3279365927394
235.0434328325678
238.7446686297946
245.0536725685652
238.2653085444509
230.8686410126673
237.6929008982634
238.9227497152481
239.1216198559688
238.2758685749328
238.7495419238636
236.1851160482707
236.4545902451767
237.007981888125
237.0505560940826
236.1832083747839
237.238043966606
236.8958366168534
236.8272801103396
236.747732711264
237.3710189024235
235.6645672351117
240.1808391539369
243.5596770603347
230.1623867255046
234.3815902139262
235.2121044592852
235.4369627186204
234.8042736733973
240.8075790549288
247.9951284892512
233.6788994562485
228.3807445486512
238.9662865172459
239.5511928601866
239.0141312882511
239.1680007950635
236.603246111465
234.3542953662044
237.0359771014041
237.0143889426868
236.6935367735755
236.1805595381933
236.168618623915
236.5537104637322
235.4442731970147
235.5101097682348
242.0369821155598
233.8808779226223
234.7305484356653
235.156885889446
235.443907326131
235.4673145079873
234.7831108388959
238.4649336422671
250.4111048124764
249.2890482412211
232.5683981251466
228.1658910539628
239.3298582130707
239.8982188881527
239.5970335412452
239.4453374140255
226.8846259931296
236.7835321080497
237.2463087390163
236.5031254160372
236.3873041722536
235.5158708292663
236.3913421109666
236.2023000956502
234.7559173180078
238.2810187682334
233.6989612384821
234.6330019703478
235.2584420597314
234.8796758717264
235.332018414379
235.4009103235543
234.6654215234473
240.9766220244492
250.8910237353582
246.3323027504219
236.3184742203628
226.6343967434293
232.3404954220516
238.9178105682847
240.231041540502
240.2138936516881
239.862398554242
227.0218553712633
235.2493842837915
237.3154576649955
236.3127469248825
235.7922684231063
235.2003606008547
235.7335436322242
235.6824866613449
235.372726260494
234.7433155650852
241.2128344341599
235.4070384345368
234.5195447259905
234.6312127018293
235.0240328708693
234.6611513503898
235.183403909724
235.3886308346432
234.5059950026029
239.1675866211354
250.1432155298889
247.2245990302509
233.851805060604
226.8545416302704
232.35698296004
239.5790982515624
240.4672233883483
240.679534394671
216.8091989023459
230.5643136196011
234.7023945828556
235.1449571664835
235.6761030797419
235.7396162947243
235.1234223945991
235.9154584772782
235.8265696207307
235.2192996319791
237.1409701081557
235.326230012992
234.3744856077611
234.5253874533357
234.7098096530554
234.5973467969545
234.5038217953868
235.0857926269404
234.9773778500212
235.275230437385
234.4051737588237
241.967103832365
252.4956005364229
246.0281629172601
225.58371124295
238.3773611036916
230.6057528603259
233.9119452418126
241.0131310478488
241.2995634623401
217.6981255707502
217.6839156712059
230.7228968395875
234.991562411237
235.8214886422848
233.3622632876011
235.1865806165035
235.8088916013832
236.1092178126324
235.5794476239732
237.1752199343769
234.4833337298977
234.6166764732888
234.4482078880743
234.4110732113859
234.8746024168996
234.4809646124209
235.0039008781183
234.3342109692269
251.3930656322356
240.8914866140197
250.1448614608381
240.4421878691295
225.4033312278802
239.0261375031742
231.3607090149976
233.5057864618288
241.3907926169547
241.3346182807833
241.5719651300651
216.2560585345426
217.5009891844202
218.8057877416463
234.6611604203786
234.8112560885464
223.8720714413289
234.8092784181114
235.8991975852209
235.2975261416961
235.4889669593255
234.3712142780908
234.51003462832
234.4110827614076
234.3379081672227
234.9210087181906
233.275631154225
235.1684788608715
234.2602962834039
234.3550865831148
253.6789004761158
244.040212285372
250.3480335984781
239.3703625404299
226.5239813268126
230.3702598924513
234.9732955794261
234.3245787492707
241.8366621253558
241.9042376308299
242.0032224504759
215.9868402992357
218.6788143334724
219.6133668646329
234.3465326193244
233.3905150109954
214.6977198270515
235.2189622072171
236.1772877160203
235.5500430393685
236.3989460186338
234.4779322721386
234.6378488029442
234.3360593977807
234.3050602691019
234.7907127342515
230.7301081709687
233.9802397066862
235.2736194272084
234.1924837845982
234.3722115349789
253.5435607186639
242.766889328352
246.9326369957144
241.3984068918452
224.0437311798673
231.2123926353542
237.1591384349076
234.3791185984795
242.147293664717
242.0691439360297
214.834912279444
221.921176589693
216.7327905343598
214.5093986810806
234.1910495390176
221.7013797377715
215.2047875666482
214.1361760658147
234.7126908710686
236.4888209270259
236.0818581878011
235.9158529204072
234.494330508028
234.5499655427248
234.680922836779
234.3322427308855
234.2037210185272
234.9695324589487
228.0168621510978
233.4483374425319
234.2535297880164
234.2418126235459
234.6360002413585
256.4348846065739
245.3508840340651
249.8113120759629
238.8849715210964
229.2542499331818
224.4977704598109
233.8727294105692
229.6917398884572
241.4639416262442
242.3563745885235
242.3003472531925
222.7306974232088
217.5507898161197
232.7666747837697
218.1087666297129
210.9528045750909
213.897447718483
235.0909319466589
236.6463206404512
236.6317296300756
237.0080151183891
234.4009150038293
234.5662089659296
234.3036852148251
234.4105334439516
234.2932589906926
234.3279402490396
234.5328830254967
223.7820694021028
232.4362426577447
234.5165295779928
234.386932878133
234.8173342835618
255.1202754395277
243.3397442800533
246.2451159714666
240.3003421655623
231.4106670138635
224.0409561678428
233.9236346918774
233.7946537067099
241.6304124139641
242.3380732486605
224.9426174998392
220.8631880440263
216.4076995150939
226.138991876374
209.0899838819307
210.5537511283375
212.9902615218145
235.0443553827654
228.9082415742261
237.6638645356077
236.5099072421754
234.3566050997127
234.3878472713902
234.1451380130382
234.295104999321
234.2146275856223
234.3701282251759
234.4942848436328
234.2477346803675
234.3400142134426
224.0236614026807
227.4126178607985
234.6651120248036
234.5825731588272
235.2375256205825
257.8645843545524
244.5737164492285
250.6409222157729
241.4110908590087
239.2106059043345
229.6305512636675
224.1658800569941
224.6879840120739
239.8872052285552
242.6075684243766
224.829657244371
221.6420113446846
219.6719841547754
222.3188301658373
208.9795241519678
214.0413378787414
217.1523734129985
234.1779346152497
218.2294742289913
237.9428768620175
237.517056514891
238.6561886028221
234.315811166117
234.1198341247324
234.0015066751684
234.1275614736676
234.120152171614
234.5450441885246
234.6734191047562
233.9540174224634
233.2111106193769
222.1185185503472
227.5636761244643
235.1707783229194
234.8662005729418
235.4395056256456
258.2660861468771
248.6257295195093
246.4487671986697
240.3263122772867
238.7201001606388
229.7294407796092
224.4967399407167
228.5179038527315
240.6946964202982
242.5935192850453
226.2420475431811