/*--------------------------------*- C++ -*----------------------------------*\
| =========                 |                                                 |
| \\      /  F ield         | OpenFOAM: The Open Source CFD Toolbox           |
|  \\    /   O peration     | Version:  v1912                                 |
|   \\  /    A nd           | Website:  www.openfoam.com                      |
|    \\/     M anipulation  |                                                 |
\*---------------------------------------------------------------------------*/
FoamFile
{
    version     2.0;
    format      ascii;
    class       volVectorField;
    location    "1000";
    object      U;
}
// * * * * * * * * * * * * * * * * * * * * * * * * * * * * * * * * * * * * * //

dimensions      [0 1 -1 0 0 0 0];


internalField   nonuniform List<vector> 
5975
(
(180.9526975759364 -332.236744697865 -1.592804361613734e-13)
(180.696119998703 -335.2072100924259 -1.578500755027164e-13)
(180.2844538684346 -336.2228405151898 -1.678279451675424e-13)
(181.4300831689325 -331.8222634319595 -1.36453769802706e-13)
(181.2120099763781 -334.8615370864685 -1.593407604395033e-13)
(181.2244443131437 -327.6195413681291 -9.172615702522485e-14)
(182.4347973250943 -328.6152020040553 -1.438593521408958e-13)
(181.8525580677402 -330.0069258720649 -1.573154628913523e-13)
(181.4141792609368 -323.0265779134665 -7.253099427597712e-14)
(182.3047715768195 -324.9165111242546 -1.033008016690363e-13)
(182.140367836565 -328.2270818971496 -1.388422279211027e-13)
(181.7177785111415 -329.9481317286483 -1.634931018327258e-13)
(181.9236042696225 -319.8883641647824 -6.049938667540986e-14)
(182.436433496123 -320.6165249245346 -7.969726692635285e-14)
(182.4667867362821 -323.0819010587438 -1.004712640739259e-13)
(182.5542235946214 -328.4378199074818 -1.54243028182598e-13)
(181.6488607539908 -329.6623543741147 -1.662010778653719e-13)
(181.4587340289775 -315.4322186213429 -5.834250206933425e-14)
(182.9067182350323 -317.6612017187617 -6.485753238542269e-14)
(182.5549575795957 -319.9052102933753 -8.096658912727651e-14)
(182.7087000739039 -324.013155724822 -1.179630834525521e-13)
(182.9625159669446 -325.547666805276 -1.506238512102107e-13)
(183.261299148048 -325.6554276903238 -1.713168175578376e-13)
(180.7525844822555 -311.2472293696785 -7.961630484236653e-14)
(182.6167604461876 -313.9326515542452 -6.003141871155286e-14)
(182.9929479360426 -316.7766165760463 -6.566120739511814e-14)
(183.159073856725 -321.7407863458445 -1.089356198579235e-13)
(183.5858271187398 -324.2121526920528 -1.689078614007936e-13)
(179.1173603516346 -304.9408178621532 -1.622803602230296e-13)
(181.4946384569683 -310.1133435647864 -7.327089706193155e-14)
(182.6584180213084 -313.3483901862854 -6.072071004329331e-14)
(183.4341442885494 -317.9781659282747 -7.497668980095261e-14)
(183.433483644345 -321.4762600640393 -1.138592110886061e-13)
(183.7626741422344 -324.3051815333723 -1.808489033490124e-13)
(183.7497473807846 -322.2561996585769 -1.490976763452627e-13)
(179.1035590964038 -301.990314900806 -1.633700277046294e-13)
(180.2090301806954 -302.9512745125209 -1.607545581075676e-13)
(182.0709929669798 -310.4360113480283 -7.261602035709028e-14)
(182.4857985680524 -311.7801771874654 -5.901534617622455e-14)
(183.7974928238161 -315.5559748616687 -6.981974764890599e-14)
(183.6895411117482 -319.1599056139385 -9.974944469585731e-14)
(185.0383567047037 -321.0871941916602 -1.77791348231955e-13)
(184.5696327381119 -320.5695654115316 -1.52231706524942e-13)
(178.8680128375549 -298.6333765129628 -2.244167838078956e-13)
(180.193767240301 -300.3178214425518 -1.618370697817888e-13)
(181.9426345918859 -308.3416876081247 -8.456123542447827e-14)
(183.1930933639153 -312.2754395379974 -5.953263163979914e-14)
(184.5776843467622 -315.9442072509503 -7.845531230415192e-14)
(184.5988607212571 -318.8998595440241 -1.22301990961629e-13)
(185.2247602240642 -319.4567615127265 -1.90547014985551e-13)
(178.593635612217 -295.0072814774691 -2.901825181633271e-13)
(179.9040667212195 -297.317263212864 -2.117427376745271e-13)
(180.4578168947164 -300.423277664628 -1.599407615437939e-13)
(183.1926501549967 -307.7037059806501 -6.281188770416557e-14)
(183.9587765167689 -312.9758355154696 -5.540016457370803e-14)
(184.7072850249338 -315.052534718076 -7.19164393410458e-14)
(184.9636790877476 -317.1427286004337 -1.146722769019623e-13)
(185.2840387983475 -317.1587254558843 -1.697403663581369e-13)
(178.5704335029914 -293.2943062786088 -3.177539924479043e-13)
(179.1534785748853 -293.272029575082 -2.9024045119841e-13)
(179.9771245489447 -296.9391902024883 -2.014792158694421e-13)
(181.5938939632743 -302.6981925834227 -9.24432643581509e-14)
(182.9800592437873 -305.5551827863525 -7.030472732468854e-14)
(184.1972827307314 -311.2559446120456 -5.49817757606847e-14)
(185.3096351714901 -315.4209360150324 -9.661066331737903e-14)
(185.2096264945886 -316.8495293788955 -1.265272003654301e-13)
(185.4498668883743 -315.3320098449586 -1.698886794958906e-13)
(178.7923810007851 -291.8533538128144 -3.836393267876195e-13)
(178.9367812748746 -291.9981210169156 -3.173340661983918e-13)
(179.3651939551929 -294.7188072547626 -2.369101864270486e-13)
(178.9169630702257 -292.7238034212205 -2.853966081495444e-13)
(181.412270460339 -299.5533410832493 -1.161910919597175e-13)
(181.9172434164505 -302.4075355526552 -9.492142983704925e-14)
(183.8563136972084 -306.8182938868132 -6.060424364352647e-14)
(184.7352032308278 -311.2510064202673 -6.185941051361429e-14)
(185.3427265468492 -313.629069415046 -9.155974001775264e-14)
(185.0614867133544 -314.8589693568991 -2.05992824984217e-13)
(185.6198781118184 -313.6726614941774 -1.039243061686823e-13)
(180.1864519296753 -292.6400468003944 -4.226357314941845e-13)
(179.0821902799234 -290.6899645567541 -3.850470631369686e-13)
(178.8835461314692 -291.6776794251903 -3.134948973911721e-13)
(179.648137571793 -294.6770618037974 -1.957424829256993e-13)
(179.1676040035047 -293.3240125950915 -2.364296737180001e-13)
(181.5037422695213 -298.5888422396304 -1.106153208121716e-13)
(183.5712177607953 -305.112537305571 -6.732544897790231e-14)
(184.7205787337554 -308.7786688269058 -5.965904575214297e-14)
(185.1287908694325 -311.588888416783 -1.863898934356558e-13)
(185.6112359224355 -311.4820407600257 -1.076025184813002e-13)
(181.8661829872512 -294.7049387543442 -4.333731487528566e-13)
(179.9374305403054 -291.4889336929625 -4.229827668221609e-13)
(178.8204982413806 -291.0317854326856 -3.404067615326557e-13)
(178.9664072044144 -290.3914755427881 -3.737107162385105e-13)
(179.0581079217825 -291.9027769016843 -2.624011308925979e-13)
(180.4403906799696 -296.0751706701212 -1.581267779814861e-13)
(179.4685162391733 -293.2179406477006 -2.235625576915617e-13)
(182.6609349283258 -300.8232567532357 -6.692324912654868e-14)
(184.3968096998883 -305.9658315745359 -6.055190751560535e-14)
(185.2204338290976 -308.79339524866 -5.908324579243411e-14)
(185.4290339826656 -311.3457925968455 -1.293698003095242e-13)
(184.6575378068862 -309.9574956606284 -2.130613617638409e-13)
(185.3670192935218 -309.3903447987657 -7.138425389928916e-14)
(182.3871765885382 -296.4544509814871 -4.372284202024638e-13)
(181.7171071634171 -294.7445937381364 -4.340883977090004e-13)
(179.0259261340443 -290.128627428677 -3.844695797939256e-13)
(179.903536459298 -291.8771927858357 -4.234694182962068e-13)
(178.7630476875008 -290.2479181321766 -3.227384711890477e-13)
(179.0878086518336 -291.3713585086055 -2.483767969305804e-13)
(180.941189847806 -296.1928608289311 -1.435687807980693e-13)
(180.1367952614063 -294.4393066026024 -1.754091125327932e-13)
(182.8078341574531 -299.8044714683134 -7.150485327157242e-14)
(183.9026898204689 -303.518840285394 -6.303420843571959e-14)
(185.4712293742799 -308.2934554266469 -1.162681471170148e-13)
(184.7018229906644 -307.2035643913119 -1.864252916671532e-13)
(185.0620390430648 -307.4279427043969 -7.744169207233992e-14)
(184.0335137561748 -301.9803550406783 -4.221407782668117e-13)
(181.5018392584244 -297.3293297948156 -4.380521211570343e-13)
(180.8719009466097 -294.6281816924623 -4.335636960024032e-13)
(178.3722521465992 -289.1323945431089 -3.612109159130713e-13)
(178.7263790656976 -289.9413718986253 -4.130780067261421e-13)
(178.6235208349439 -290.0761914715416 -2.904086801692824e-13)
(179.4529893875707 -292.1756325607273 -2.019933756369949e-13)
(180.3700562274542 -294.4208497177759 -1.587075640738885e-13)
(182.6895137679649 -298.9739660062472 -7.198429890293449e-14)
(184.612165139643 -304.9390081726587 -5.829129193831873e-14)
(184.9896621147908 -306.8543114470438 -1.254778285284504e-13)
(184.6113364540291 -304.9724255666356 -1.88470377908123e-13)
(184.8258078722198 -304.2989053138137 -4.141397359163925e-13)
(183.4646367122166 -303.252261176975 -4.258024339427134e-13)
(181.1782938866967 -297.8579600544186 -4.381882068777797e-13)
(178.7935922451023 -290.9013977377106 -4.222606339767004e-13)
(178.3233644985953 -289.3145055200368 -3.803438862934779e-13)
(178.0260992461009 -288.7748299253676 -3.298903049563556e-13)
(178.3075494466791 -289.1885214254145 -2.880089223444022e-13)
(179.162393898839 -291.6012232906853 -1.841036211417176e-13)
(181.3367536478526 -296.5077599441529 -9.816257843782539e-14)
(183.5564297018259 -301.4290156273439 -5.093098512955264e-14)
(184.2687699269024 -303.230611308906 -6.145311902689024e-14)
(184.8242555431145 -304.6467356333677 -8.977565316827074e-14)
(184.6240219289593 -303.8641234059812 -1.067331870383568e-13)
(184.7061426227299 -305.0609311611969 -1.961948971873152e-13)
(185.6408321197785 -305.1233557499507 -3.602906925292567e-13)
(184.7853427229445 -304.6488754151291 -4.153111912775473e-13)
(182.6829179121605 -301.046778967505 -4.372130538147265e-13)
(183.8397831161621 -303.7721405086995 -4.246972188010517e-13)
(179.8454095848394 -294.7304256155776 -4.350624739938415e-13)
(178.565262688288 -290.9463975399603 -4.208754255180194e-13)
(177.8135031281119 -288.9840166568946 -3.66051841663006e-13)
(177.5174146920188 -288.443808027742 -3.132053655460334e-13)
(178.0712133189589 -289.2597430704062 -2.512219016847776e-13)
(178.3135240891217 -289.7252969644585 -2.219023672759822e-13)
(180.3210177481581 -293.9475833380048 -1.128518830401982e-13)
(181.2691412317929 -296.3849105973461 -9.127427077372189e-14)
(182.999551779772 -299.7685482349453 -5.062751158881014e-14)
(184.5631595004965 -303.0905757101782 -9.419185466110548e-14)
(184.6850727726352 -305.216280625227 -2.206757532360209e-13)
(185.1645783088205 -303.3585894092896 -1.360258889060391e-13)
(185.9346568183203 -304.549244263798 -3.428463970398266e-13)
(185.748389160728 -304.4325537285234 -3.709026129704509e-13)
(184.9453675740651 -304.6619636475558 -4.164851675556314e-13)
(182.0642957482454 -299.8583478072151 -4.419775253928265e-13)
(182.6553967471118 -301.020733777333 -4.415684666913611e-13)
(180.5451965703221 -296.9842333465342 -4.351754112689192e-13)
(178.9890201075555 -292.8116876393657 -4.199192598850389e-13)
(177.873576466823 -289.3607316144434 -3.817978772146768e-13)
(177.5217878938819 -288.4688590139571 -3.253728909076417e-13)
(177.6821015799311 -288.7745090029376 -2.722491542103986e-13)
(178.3007156003774 -289.5732842282092 -2.074673285507754e-13)
(180.4978049077121 -293.8058784513632 -1.018781238101749e-13)
(183.2627858543491 -299.9699761789689 -5.075529851003645e-14)
(184.0174531019639 -301.1992076452803 -6.246657819923584e-14)
(184.6480816270136 -301.9725334287577 -2.109734055020612e-13)
(184.7106021600723 -301.3454455406926 -1.429335111435908e-13)
(185.8461074194263 -304.8346393494739 -3.061691500368152e-13)
(185.7347928721261 -303.7723057592188 -3.513699066951884e-13)
(185.2883210476115 -304.6949252385345 -4.055177984957246e-13)
(185.4167318782044 -303.6792669943719 -3.723277437623248e-13)
(183.7731442847156 -302.6376890345686 -4.380425264147801e-13)
(182.6875830187036 -301.1807843505777 -4.424193668041616e-13)
(179.5239538244891 -295.5518748851809 -4.248842656902116e-13)
(178.5246121810032 -292.2771664350028 -3.984237625324326e-13)
(177.7296846282593 -289.335122123243 -3.64115909984855e-13)
(177.4966005286088 -288.6057388637751 -3.253914534883623e-13)
(177.7689658211079 -288.8239951423511 -2.526458710302177e-13)
(179.2559006284174 -291.395969662603 -1.5253012110801e-13)
(182.1366587273709 -296.5351726672959 -5.050857846646849e-14)
(183.7900292380595 -299.0837631558695 -6.345506351117294e-14)
(184.6663176335136 -301.4889405223985 -2.255064633336174e-13)
(184.6097971118575 -300.5106900365693 -1.077434712395197e-13)
(185.0719107107008 -307.1662021303 -2.848005641261233e-13)
(185.150703016673 -305.681060710567 -3.16238277032923e-13)
(185.197499849777 -303.5852456422184 -3.511507347545965e-13)
(184.6812398136476 -303.4289250175209 -4.273393647329618e-13)
(184.7836972012712 -302.9221562687968 -4.145077155359533e-13)
(183.5963396319873 -302.0231859027759 -4.371956660644203e-13)
(181.249429050904 -298.837464760198 -4.416647649481417e-13)
(179.6358705555675 -296.5076305611599 -4.239762013625676e-13)
(178.758214479275 -293.6356610964792 -3.954291339368608e-13)
(178.1077782309988 -290.7362019148093 -3.574304030098393e-13)
(177.4480169219264 -288.4813285962023 -2.93549542357469e-13)
(177.7815411826235 -288.8376979066229 -2.51966962678454e-13)
(179.4187133347865 -291.3219235222139 -1.500662560010678e-13)
(182.3586875968681 -296.2946151075964 -4.92492129931513e-14)
(184.1271001457708 -299.4284597566286 -7.019049425069307e-14)
(184.5292804981094 -299.9314201288109 -2.100688980970527e-13)
(184.8582570848032 -299.9867239751679 -1.150123878087839e-13)
(184.8439978040845 -310.576116775333 -2.603597129038607e-13)
(184.233087218305 -310.3757496036122 -2.940498876006871e-13)
(184.8867434732364 -307.16821417516 -3.176284215337155e-13)
(184.7883702434421 -302.8580801232656 -3.832970459403064e-13)
(184.2673835074375 -302.126295495841 -4.227610784051469e-13)
(182.5914128332591 -300.4863812688412 -4.417786791656791e-13)
(180.9910227302178 -298.4474775815531 -4.40293879784885e-13)
(178.5034209435269 -294.5992790851284 -3.932462716309848e-13)
(178.2639683398051 -292.9066040810085 -3.584583839354131e-13)
(177.6652318944659 -290.3805806707555 -3.121203717919439e-13)
(178.1598101254542 -289.6618229230822 -2.311021890020961e-13)
(180.3987909349103 -293.0769227096555 -1.022196894712144e-13)
(182.0579111308357 -295.5737109392462 -5.696886828134682e-14)
(183.7820034565065 -298.3677511339114 -5.583005040467775e-14)
(184.6818294653652 -300.2395067233953 -1.446195916773787e-13)
(183.9811858510205 -299.5666663104694 -2.446978996868251e-13)
(184.3520966901281 -299.3871669339381 -7.120942802980595e-14)
(184.6436412288869 -309.818713389994 -2.544476669069974e-13)
(184.5617579902199 -312.0511336334528 -2.671488319067581e-13)
(185.0336907145461 -311.8334074383132 -2.972026147816732e-13)
(185.2191718884157 -306.7359602237709 -3.446941060387526e-13)
(184.2079085533825 -301.4959781293787 -4.226498910544031e-13)
(184.907162959533 -303.8510027127337 -3.754877781871257e-13)
(182.5404871961474 -299.9462166155301 -4.394150453071341e-13)
(179.7842437479423 -296.3261331631346 -4.35657418707579e-13)
(178.4067986504305 -294.6413025211381 -3.945183695803396e-13)
(178.383861522616 -294.1360957531364 -3.39929945237281e-13)
(177.9593069328508 -291.3822731593169 -3.0532403061724e-13)
(178.490990149223 -290.9321171104939 -2.27606215247867e-13)
(180.2460249150609 -293.1676411403789 -1.174735188624929e-13)
(182.8492859162657 -297.0562650956829 -4.397780996340791e-14)
(184.334292933172 -300.4029644476819 -1.407808923958257e-13)
(183.6282886088921 -300.0971418477579 -2.158041844584989e-13)
(184.2638051871438 -300.1056401061062 -6.217362661533316e-14)
(184.8664631859205 -309.1538048892555 -2.492648294812249e-13)
(184.80234034592 -309.4386506817947 -2.552236406816236e-13)
(185.3091426862137 -311.9315981788706 -2.681545518683076e-13)
(184.8772404801982 -312.152913320945 -2.879282659012928e-13)
(185.5922134857107 -311.7682827385563 -3.136956256190736e-13)
(185.5895712089226 -310.1388333602112 -3.406129155837038e-13)
(184.1029113323546 -301.2323955455932 -4.284347864181222e-13)
(184.6291153549853 -303.4132535997276 -4.086130899251459e-13)
(181.4004024489257 -297.73730292866 -4.451632754133926e-13)
(179.8469314039912 -296.1335158874965 -4.355321781731736e-13)
(178.1209851995187 -293.8882848275393 -3.835078796295021e-13)
(178.4471004349198 -294.1844274578007 -2.556993356184587e-13)
(178.0880367812001 -291.5094554673139 -2.582143799628741e-13)
(178.9258035740948 -292.0393469126861 -1.99639392949397e-13)
(181.0955422699834 -295.3876464338165 -8.530613009027547e-14)
(182.4782421136271 -297.1544659553096 -4.684817357394971e-14)
(184.2404661354137 -301.4287637391291 -1.051462721458534e-13)
(183.0646798948036 -300.2869606413217 -2.255630511884785e-13)
(183.1919812352219 -298.9780541815741 -4.57438786597443e-14)
(184.5104246867768 -301.3815529338751 -6.98845131199718e-14)
(185.3946365865639 -308.0262104743306 -2.467172337605998e-13)
(185.2435149368917 -307.8382298550425 -2.507020376855557e-13)
(184.9797465640145 -309.280481689093 -2.551912183012645e-13)
(185.3100173111947 -310.5728532419534 -2.620848242045155e-13)
(185.6378832753829 -312.5077769280464 -2.963997779374321e-13)
(185.6344777192555 -312.6986824916936 -3.04035595166671e-13)
(185.7357455736008 -312.8394985924999 -3.127758668721761e-13)
(185.6451668138188 -309.9060659107016 -3.555659277240783e-13)
(182.8931743341023 -299.1215213960162 -4.46068326573903e-13)
(184.7973840032655 -304.3071701400258 -4.13581909798936e-13)
(181.3903578759824 -297.336708913019 -4.441986333144892e-13)
(178.7578319597142 -294.0834678396658 -4.194621181567359e-13)
(178.0996733288414 -293.607825997071 -3.370991964093205e-13)
(178.4366223936441 -293.5257982945535 -2.544911130737099e-13)
(178.4108801094388 -294.2803707638503 -2.556217694052442e-13)
(179.3200280451297 -293.9138112505327 -1.99704493000195e-13)
(180.355837327961 -295.9754395508845 -1.23696701452781e-13)
(183.4249353957678 -303.2306066974144 -1.078720878776892e-13)
(182.794127701229 -302.7127246052291 -2.037383425495611e-13)
(182.5418533474972 -299.77786941742 -5.82398460304471e-14)
(183.7432792771931 -302.5962204586351 -5.15655238960417e-14)
(185.2026369560903 -307.7489671788003 -2.355280881596255e-13)
(185.5267996305494 -307.0805586154002 -2.482918034104145e-13)
(184.9623456965455 -308.2596786115145 -2.554963251339416e-13)
(185.2272697725109 -307.5813506943916 -2.505380027572815e-13)
(185.5474005662058 -310.4818883379568 -2.6688650831557e-13)
(185.7025207729182 -312.5946097184282 -3.007932614254365e-13)
(185.7759841694377 -312.8540208325445 -3.171649216612514e-13)
(185.2974738597302 -308.5685529338875 -3.934464837357992e-13)
(185.5494331850729 -312.1133675132992 -3.524574030607544e-13)
(182.5365826152964 -298.4626068827594 -4.465708889116198e-13)
(183.5555663133309 -302.2407766741863 -4.388901129158218e-13)
(179.571389957673 -294.2518353672646 -4.39064576783231e-13)
(178.854973343268 -293.6564356151428 -4.178838496786613e-13)
(178.399826474383 -294.3058587592368 -2.76432627402909e-13)
(178.2577283030411 -293.184786025784 -3.385636866435207e-13)
(178.5133617345212 -293.2548447933735 -2.556223712879503e-13)
(178.6077186934649 -294.520903871897 -2.45713716359096e-13)
(180.9137756675946 -297.5077492368828 -1.148899679846754e-13)
(183.1767892175544 -303.3793252635962 -6.291011987888307e-14)
(183.2828230672115 -303.4630650977727 -1.29343271310375e-13)
(183.1859297096868 -304.7090532007297 -2.136214655352017e-13)
(183.0140912876541 -301.5438163910208 -4.938793768480299e-14)
(185.5657184181193 -309.4094041444213 -2.303494814320597e-13)
(184.8394233711036 -307.8896429888816 -2.393077014104551e-13)
(184.9521033538572 -306.7010095417144 -2.483562592148452e-13)
(185.1296129479953 -308.0281901768097 -2.579867220105579e-13)
(184.8194091672419 -307.0770880466044 -2.538137811024239e-13)
(185.5551126938011 -310.5861963807291 -2.795077242020205e-13)
(185.6305958492438 -313.0592408129222 -3.179833263930355e-13)
(185.5026366034812 -311.3403287350861 -3.022242181438942e-13)
(184.9894483286776 -310.0429688941642 -4.050048334095818e-13)
(185.3300847713022 -311.9490809791776 -3.743644202375931e-13)
(180.5029261671608 -295.4613773373934 -4.504748560028413e-13)
(182.9593913655784 -303.4124963553337 -4.406734386514959e-13)
(179.4082661986054 -293.640784212053 -4.347860376541503e-13)
(178.1378466245388 -292.421864429541 -3.813925619332283e-13)
(178.6993480588113 -294.6805347771208 -2.377646794933897e-13)
(178.3477157520733 -293.5068757830244 -2.778958293203854e-13)
(180.0420795531907 -296.7580610181732 -1.532095214698511e-13)
(182.7123906149652 -303.5141726609261 -5.906069812155792e-14)
(182.9858790978258 -304.2334584960366 -9.774298258196306e-14)
(184.1491182609566 -304.9257038875363 -2.48908408913187e-13)
(183.1933695416745 -304.644016981865 -1.659673454041497e-13)
(182.3038325310441 -300.9047316047364 -5.202199699462767e-14)
(180.7645888964609 -323.0121793475712 -2.136889497472315e-13)
(182.8770081817599 -313.4451465577043 -2.33697495057515e-13)
(184.3625284427265 -308.5936921577473 -2.394524329603803e-13)
(184.9809972008015 -306.9743373410729 -2.484832958221447e-13)
(184.2697520303483 -305.9345448119231 -2.537077377570105e-13)
(185.3402396380457 -308.8100735300433 -2.665788400404424e-13)
(184.5009793205815 -306.6378488566908 -2.568480243842245e-13)
(185.5135052872854 -309.798080082237 -2.802475682057956e-13)
(185.5273019004933 -313.0966878019923 -3.289080546419964e-13)
(185.3703227692907 -311.4324093034519 -3.225932563167974e-13)
(184.0800489396715 -308.6822946218155 -4.256370861824054e-13)
(185.0708591544304 -312.6952694541676 -3.726719579757462e-13)
(179.4679440885569 -294.9698883006218 -4.486614446613334e-13)
(180.6662073286029 -300.0059668499374 -4.522115559023411e-13)
(177.7546095862694 -291.2873631940756 -4.022225270291905e-13)
(177.8469218015471 -291.4073080549605 -3.721388090998452e-13)
(179.3218281275443 -295.8627171410124 -1.883832845821149e-13)
(177.8007344647804 -292.4080250562802 -2.716542836539732e-13)
(180.6087243043648 -297.9749765647103 -1.297459944942971e-13)
(182.3666456978808 -302.707320164333 -4.232330831946697e-14)
(182.8561934541166 -304.5518801562575 -1.079820666117379e-13)
(184.4747005574545 -304.7629066875911 -2.177067788698821e-13)
(183.7075274638568 -304.4924103422291 -1.60591355389893e-13)
(181.7345961641137 -300.8390540316124 -5.397367722663611e-14)
(178.5272726983573 -333.5749258791207 -2.264202105652189e-13)
(181.5971985869305 -314.3037868325595 -2.343637453005977e-13)
(183.6823004750061 -307.6336850971604 -2.519339007765668e-13)
(184.0804976925942 -306.7091961702259 -2.522933337651112e-13)
(183.8101016291992 -305.5918021964348 -2.561038595724147e-13)
(184.8565076582399 -307.6775984276315 -2.672277556960526e-13)
(184.8698626061478 -309.7910227628312 -2.982370772696961e-13)
(184.8773719086144 -310.5957644563529 -3.267745077516944e-13)
(183.3846614030367 -310.4874549362321 -4.271918402981837e-13)
(184.264225834365 -311.7299095198981 -3.973923394152241e-13)
(177.4224998736218 -291.7195105217638 -4.413037503494257e-13)
(180.1720719429427 -302.5576663848332 -4.521250178918431e-13)
(177.1699658624806 -290.7116234911513 -4.043939959048025e-13)
(177.2547179879868 -291.1759101364139 -3.17779484568548e-13)
(179.2270530528926 -295.9296075507958 -1.723895939710138e-13)
(177.8752544011515 -292.7858199898153 -2.2472392990255e-13)
(181.6752434888334 -301.6357656349304 -4.346313984451337e-14)
(182.896338910327 -303.9019974898143 -7.427177314060976e-14)
(185.0275051238528 -304.8874434487096 -2.129132320010234e-13)
(183.6427651028787 -303.9173185019246 -1.083992926975779e-13)
(179.9716752768818 -297.9396998592401 -8.23677028767188e-14)
(180.8039156547526 -336.5230177562671 -2.291210851928202e-13)
(181.939890206926 -312.1574638106267 -2.524273677355318e-13)
(182.0193557415715 -307.7113938995211 -2.526274878450035e-13)
(183.1617015621566 -305.3288146038729 -2.531104552590639e-13)
(183.294709527184 -305.9988416338037 -2.648572202151301e-13)
(184.2568814495785 -307.606502623538 -2.752767462347443e-13)
(184.1028341588472 -308.1421842822495 -2.970693443622988e-13)
(184.2944142920994 -310.15846101422 -3.578805714361522e-13)
(182.2749417192367 -308.5116260983381 -4.494211145320403e-13)
(183.7007004556392 -311.1922500661556 -3.957351738987419e-13)
(176.5305191624082 -291.8571206644972 -4.296762620033551e-13)
(178.0895568116542 -298.9161614160058 -4.531436286299472e-13)
(176.134747175712 -289.9163921607561 -3.401878150493334e-13)
(176.2860366092407 -289.8444316109936 -3.125554854818114e-13)
(177.1122407000866 -291.4492576338578 -2.089476093252364e-13)
(182.3561492839702 -302.6066567120132 -4.20524751912417e-14)
(180.5965497114109 -299.0384474317169 -4.908284946029081e-14)
(184.9991851283729 -303.1818732051697 -1.346620716042159e-13)
(185.2608462710895 -305.2396704083986 -2.434508486949374e-13)
(183.8251463205018 -303.1034807952283 -9.951685693277383e-14)
(179.4126672464634 -297.0103471517708 -8.031399449431616e-14)
(181.1163357809825 -335.1573363948638 -2.483316073767701e-13)
(180.4808970782088 -336.7556389274775 -2.137541156294366e-13)
(182.9463172571339 -318.4232080220042 -2.528255450174844e-13)
(181.4038474169818 -305.4845382035157 -2.550041439069839e-13)
(181.7501994513408 -304.8861358053351 -2.553872430678962e-13)
(182.1197753276868 -305.0212111000625 -2.659492150639009e-13)
(183.4354229256952 -306.6245902305889 -2.755912989250979e-13)
(183.5315566023659 -307.8185812154742 -3.122555563891859e-13)
(183.1428445515942 -308.1598273798595 -3.665091774467077e-13)
(181.4412871964302 -309.2431777519093 -4.499833051619568e-13)
(182.7834907889541 -310.1039301358854 -4.200082667064894e-13)
(176.8598059969072 -295.6143989358175 -4.352819661342114e-13)
(175.6524041254641 -289.9452487549914 -3.533117743542452e-13)
(177.7961665966746 -302.0809305389085 -4.530985778907665e-13)
(176.0102057616668 -289.5554084795941 -2.832966874124881e-13)
(177.9438607592211 -293.3363963853895 -1.243862272769783e-13)
(182.0959104255338 -300.6573593322295 -4.276540621661552e-14)
(180.6162716547803 -298.239834656161 -5.09491887582004e-14)
(185.1124210478586 -300.8085088047937 -1.245367196002955e-13)
(185.5278690804591 -301.2856103364239 -2.32157568390169e-13)
(182.9910197663239 -300.9041452509724 -4.816237118172775e-14)
(181.0818642568503 -337.1957735385034 -2.520215788625252e-13)
(181.0335582005459 -337.0714151804193 -2.438201962269994e-13)
(183.2667778868288 -312.0772850625435 -2.585796646594043e-13)
(182.791428463764 -307.2193796510349 -2.590497001537623e-13)
(183.0757428363106 -305.7671044637764 -2.802052777598772e-13)
(183.34769134673 -306.8602847787983 -2.953685574607451e-13)
(183.2541934503366 -307.8125924846298 -3.463583609871454e-13)
(182.4980060934814 -307.7285061026677 -4.063219064793059e-13)
(181.2800720888416 -308.7627766289507 -4.449931596508765e-13)
(176.2765254633826 -296.0007804558707 -4.094725131975236e-13)
(175.3466500579538 -289.5324290311031 -3.199584977172264e-13)
(178.0297167168677 -302.6896130396123 -4.536770284524518e-13)
(175.6508743095944 -289.1090606028271 -2.632192181809161e-13)
(177.6588263761327 -292.072392768449 -1.254771291664527e-13)
(179.7274602531491 -295.5033818338932 -6.171977385621185e-14)
(185.0284316317399 -300.8086642594847 -8.278639010721285e-14)
(185.3110041259731 -301.0212331304168 -1.651852660397586e-13)
(185.5722128906707 -301.249801692342 -2.499228520648463e-13)
(182.9287200139635 -298.3851091321721 -4.356588255913893e-14)
(181.5544425450902 -337.3320086263254 -2.561409452670944e-13)
(181.1987271661601 -337.1223062232174 -2.397822755361846e-13)
(182.6492490532951 -314.2520860421944 -2.685210157089818e-13)
(183.7377901172299 -306.4866874166679 -2.814778071282158e-13)
(183.1566176223477 -306.3594163843713 -3.036540964406043e-13)
(183.0177851823726 -307.0173081741119 -3.615007267544803e-13)
(182.6533055880487 -307.6945391302395 -4.14629551855168e-13)
(181.1902923778309 -307.7521248079538 -4.531943731595127e-13)
(175.5416093087759 -293.2517333112758 -3.365366371929029e-13)
(176.7717613764578 -300.2122282025076 -4.268066010101537e-13)
(175.3072058692659 -288.8668429939436 -3.146229974550811e-13)
(175.4171764636183 -290.5971689303212 -3.256649797265966e-13)
(178.2119810824607 -302.9411150260694 -4.527015224375045e-13)
(176.054505751026 -290.0937007279605 -1.981433690912668e-13)
(179.9901038735605 -294.8561561414032 -6.201845476233526e-14)
(184.0691242560814 -300.0449511157898 -4.952645339879671e-14)
(185.433775770151 -301.6401772752679 -8.364217614915784e-14)
(185.5540760141234 -301.5817687706164 -1.468983536262848e-13)
(185.5030460354215 -301.638523924947 -2.500805183650538e-13)
(181.8304555055835 -297.9801226609027 -3.821867665233456e-14)
(181.6638445843738 -337.757670947779 -2.539794012944858e-13)
(181.6510095321175 -337.0551403219222 -2.62108847419003e-13)
(182.2707776854019 -331.4625358069932 -2.258558758299832e-13)
(183.5845935902274 -321.3671596393688 -2.707634321612225e-13)
(184.3144654193453 -307.9896016506627 -2.932603452873292e-13)
(184.2121150133401 -307.3825163257305 -2.995302542044291e-13)
(183.3922292899533 -306.5792625909644 -3.373928251389902e-13)
(182.9993163291008 -306.9223826710268 -4.059184884984979e-13)
(181.663145492065 -306.026323784935 -4.461611695742971e-13)
(174.9489560510777 -294.318040084808 -3.073830971839929e-13)
(176.9018425895542 -300.018462028473 -4.051097022184638e-13)
(175.2887645682792 -290.0726651580507 -3.096035626643188e-13)
(178.5757461892668 -302.4118163200224 -4.52828507522926e-13)
(176.3282252256585 -290.8511542978296 -2.02545281324841e-13)
(177.4845087036176 -292.9861825848183 -1.387326836675399e-13)
(183.7815145390005 -302.2227924303196 -3.491619691009665e-14)
(185.1213095304082 -305.6050634257141 -6.437972161341067e-14)
(185.5403571822795 -302.0476009705474 -1.603226896565585e-13)
(185.4801742783511 -302.9498591613399 -2.416170320929111e-13)
(182.3839967182915 -300.0916141327349 -3.925247513006304e-14)
(182.4724765516436 -337.8180671700924 -2.581193119291566e-13)
(182.6127456184007 -336.6511646638811 -2.701520554657322e-13)