/*--------------------------------*- C++ -*----------------------------------*\
| =========                 |                                                 |
| \\      /  F ield         | OpenFOAM: The Open Source CFD Toolbox           |
|  \\    /   O peration     | Version:  v1912                                 |
|   \\  /    A nd           | Website:  www.openfoam.com                      |
|    \\/     M anipulation  |                                                 |
\*---------------------------------------------------------------------------*/
FoamFile
{
    version     2.0;
    format      ascii;
    class       volScalarField;
    location    "2000";
    object      alphat;
}
// * * * * * * * * * * * * * * * * * * * * * * * * * * * * * * * * * * * * * //

dimensions      [1 -1 -1 0 0 0 0];


internalField   nonuniform List<scalar> 
104311
(
3.386701860990407e-05
2.776588359009014e-05
2.759498931646753e-05
2.222230606301331e-09
2.526253254855653e-09
8.471399539248059e-09
1.643371647140346e-10
6.361463107688676e-09
1.39868627563436e-10
1.30792592427197e-10
2.926084832590925e-09
1.228211135229048e-10
3.419549570216945e-05
1.460034987806582e-09
3.029305505528093e-05
9.530593023259289e-10
4.461207495912745e-12
5.354345144533587e-05
2.460563846940901e-11
4.94176446760007e-10
3.934634208237695e-11
3.357671455681827e-11
1.243229628109801e-10
2.819294033954211e-11
9.180026959075081e-12
3.852336950229186e-12
4.538818681423356e-11
1.051356417135783e-10
7.543196412014565e-11
1.169723897922825e-10
1.668424949270133e-10
1.517310164942038e-10
1.74853597471855e-10
2.215612978048449e-10
1.899919376616391e-10
2.675654854062403e-10
2.063316434289074e-10
3.124070954124702e-10
2.075850819020486e-10
3.662049652081846e-10
2.043451872368339e-10
4.256878828501581e-10
4.843996991880691e-10
5.445298197755933e-10
1.483980135453119e-10
1.361426364927852e-10
6.276208448853985e-10
1.231049507433835e-10
7.131361064184532e-10
7.598986603130234e-10
7.820723669353455e-10
7.830344648052774e-10
6.193665079892942e-11
7.760410025262184e-10
5.703284311647787e-11
7.90901313069392e-10
5.336397321279941e-11
4.983727208715552e-11
8.251162906762212e-10
8.519474443377289e-10
4.236912982716103e-11
3.842202124389202e-11
8.763510901088614e-10
3.476154989775721e-11
9.015143487718793e-10
3.244789765232529e-11
9.304648673673013e-10
3.139491722850186e-11
9.676842866459315e-10
0.0002988884362226164
1.008769638681637e-09
3.154329208968905e-11
1.038915892182398e-09
3.165208761956349e-11
3.153218462810798e-11
1.047397699654227e-09
1.051356146053295e-09
1.062060831087745e-09
2.724035324426349e-11
1.068272256743866e-09
2.580328678407655e-11
1.072098347718377e-09
2.400094271325476e-11
1.074132071738409e-09
1.072664121051668e-09
2.18809316862969e-11
2.123781190961246e-11
1.070245537948221e-09
2.026329666279443e-11
1.074510302343675e-09
1.93998404837714e-11
1.085152922335017e-09
1.891410026744516e-11
1.097879040754991e-09
1.116594535081602e-09
1.136058950017259e-09
1.150895139025118e-09
1.820095470096543e-11
1.161112882993932e-09
1.774148053416396e-11
1.710043309886244e-11
1.166980380139162e-09
1.660521796198605e-11
1.168108396267421e-09
1.637769703518038e-11
1.16540789231109e-09
1.630624517771835e-11
1.161963941986967e-09
1.655451651560001e-11
1.15634886542143e-09
1.673732255134626e-11
1.154162463533347e-09
1.739148857739566e-11
1.155829865235705e-09
1.788779013974247e-11
1.157489296099138e-09
1.824028396130688e-11
1.157026632894015e-09
1.87856734848723e-11
1.157997258074826e-09
1.936760685420279e-11
1.161073693483094e-09
1.979607145056386e-11
1.165537414492897e-09
1.967201147077258e-11
1.172004989643594e-09
1.928582903996458e-11
1.179087464921759e-09
1.847350702294648e-11
1.192991975461973e-09
1.793240402328268e-11
1.210603357079068e-09
1.223795107413774e-09
1.717281319437012e-11
1.670394756396445e-11
1.229672174279254e-09
1.601281658756074e-11
1.234836006700555e-09
1.53281543505232e-11
1.242934720961621e-09
1.457515864275041e-11
1.249207064569338e-09
1.393237626788132e-11
1.250404191522034e-09
1.249912989749595e-09
1.270312733531265e-11
1.246973096626261e-09
1.203812347896631e-11
1.24322122045163e-09
1.239269357128971e-09
1.005617918911906e-11
1.236842001726764e-09
9.724081777163518e-12
1.221836253797058e-09
9.519636039544324e-12
1.192826453711718e-09
1.177182647220116e-09
9.40264997347265e-12
1.213120143966217e-09
9.407330976771962e-12
1.242282610214902e-09
9.22614038662786e-12
1.257955147480952e-09
8.851960715535592e-12
8.433369346778379e-12
1.267492818328363e-09
8.071429557104309e-12
1.271275057038138e-09
7.751002488686128e-12
1.272709578156436e-09
1.270542721303876e-09
1.26622095664207e-09
1.264454025923368e-09
1.268521082699578e-09
5.625723516927527e-12
1.275821102451602e-09
5.296944321764968e-12
1.278164226931406e-09
5.111656647635417e-12
1.277354554018214e-09
5.107571446165378e-12
1.271032221305695e-09
5.132853764755045e-12
1.264517550308326e-09
5.064136903756917e-12
1.261649704050318e-09
4.946630640654706e-12
1.2593678156444e-09
4.692389994906775e-12
1.255600375081738e-09
1.250471117868889e-09
1.245432430194699e-09
4.26687894360983e-12
4.146741145720128e-12
1.244150504425101e-09
1.245621658338583e-09
1.250630983585081e-09
1.260431567345075e-09
1.27147413582418e-09
2.632443798457036e-12
1.276537374702236e-09
2.387596513921133e-12
1.277199462132122e-09
2.130489514332727e-12
1.278695811873549e-09
1.889047534838626e-12
1.281454070983531e-09
1.718837883287149e-12
1.290693903055974e-09
1.561372490698644e-12
1.302930726772842e-09
1.412355832913694e-12
1.310675753316795e-09
1.28783484832929e-12
1.313517645732133e-09
1.176650965951454e-12
1.31511381436742e-09
1.077645170639952e-12
1.314890712924589e-09
9.823493992833906e-13
1.309955888189399e-09
8.742110056404705e-13
1.304639724433937e-09
7.679776604867008e-13
1.300813369323482e-09
6.94680967705528e-13
1.301821399632988e-09
1.304807860714721e-09
6.011341450179718e-13
1.304907583409405e-09
5.227895716620042e-13
1.301151777734159e-09
4.160014145758476e-13
1.293324913721571e-09
0.02683907252818037
1.287731759254687e-09
1.284314761094788e-09
2.727558201351332e-13
1.276161525236447e-09
2.808285023467087e-13
8.279877447175582e-09
1.262801485766901e-09
3.340930759303796e-13
1.248339276568134e-09
3.965562936874191e-13
1.242755345171654e-09
4.490939251639104e-13
1.2294685013941e-09
5.021417609845424e-13
1.19743338129529e-09
1.179716002794605e-09
5.685046733967127e-13
1.210231527906072e-09
6.369943779155856e-13
1.236926223934759e-09
7.21257713777896e-13
1.240363750566702e-09
7.8693152095382e-13
1.217968504300329e-09
8.391525009792852e-13
1.205566262445422e-09
9.842982463788375e-13
1.238743791505996e-09
1.274028460119342e-09
1.294088537648953e-09
0.02578013581786795
1.301793346228102e-09
1.303029733984682e-09
1.37452476185288e-12
1.397117183195787e-12
1.301025265668457e-09
1.298777027321426e-09
1.504619307942636e-12
1.29520104038433e-09
1.71974012471503e-12
1.291649502757806e-09
1.285579117591502e-09
2.008506589920824e-12
1.280826925421294e-09
2.188905499413663e-12
1.280103630251932e-09
2.40906807110807e-12
1.279898523621536e-09
1.281874318114777e-09
2.757115056848544e-12
1.288303588760389e-09
3.043931459232984e-12
1.294727552249275e-09
8.507013257121419e-09
3.453569915953717e-12
1.298124841714922e-09
3.851466120736436e-12
1.290262732189063e-09
4.118203006639553e-12
1.29967810509515e-09
4.261470941790586e-12
1.31396086490706e-09
1.326714115425941e-09
4.352651286424792e-12
1.3348506716584e-09
4.454611601981176e-12
1.336308597310341e-09
4.553947302366049e-12
1.332731910463818e-09
4.607421251214319e-12
1.326269746945063e-09
4.812635845309049e-12
1.316922547308066e-09
5.058142309104399e-12
1.304466127438109e-09
5.328509975118417e-12
1.290451560934999e-09
5.782931386078388e-12
1.279462390458001e-09
1.27509335040079e-09
1.276315412491568e-09
1.282156505191904e-09
1.287753495934923e-09
7.061424890663256e-12
1.291915974391619e-09
7.224299377193975e-12
1.296187647642425e-09
7.80127163899619e-12
1.299987858328476e-09
8.754828001620045e-12
1.303991023722035e-09
1.304673602151754e-09
9.614327239787541e-12
1.302891245713876e-09
1.02555776687293e-11
1.299351311707555e-09
1.075065765067032e-11
1.296304044715929e-09
1.109902468671919e-11
1.295729016964414e-09
1.133953170883524e-11
1.295867540692891e-09
1.154539869306118e-11
1.297433203438026e-09
1.17803121290314e-11
1.301819262401017e-09
1.310155500966383e-09
1.320021404888348e-09
1.328588882767735e-09
1.182577357323362e-11
1.33791099268482e-09
1.206178649865195e-11
1.347129336089283e-09
1.257013957307243e-11
1.352781445873598e-09
1.356760897987076e-09
1.324040563339358e-11
1.357076278295452e-09
1.388027179924265e-11
1.353840108040762e-09
1.441390050459836e-11
1.351724445525933e-09
1.483495810465516e-11
1.348128319447667e-09
1.529965064643641e-11
1.340576720600105e-09
1.331486800951827e-09
0.001954219405903487
1.320726990133286e-09
1.557125956691105e-11
1.305980151045788e-09
1.573233632396146e-11
1.291377289771154e-09
1.603571717066474e-11
1.281027721151099e-09
1.277122540827653e-09
1.278721285949448e-09
1.647891125384601e-11
1.288295337816579e-09
1.684089804832218e-11
1.299874809362737e-09
1.726087948523895e-11
1.305861040527972e-09
1.781624916522168e-11
1.311226407919291e-09
1.318061336650831e-09
1.322818931308896e-09
1.81754959576905e-11
1.322421721001531e-09
1.823511051807298e-11
1.315649904409481e-09
0.002264118518427741
1.838850383893468e-11
0.002331817156626188
1.299754941004705e-09
1.274586432140973e-09
1.250529981423257e-09
1.232431940355467e-09
1.220187783520548e-09
1.206639905712423e-09
1.190421673086249e-09
1.175717223412295e-09
2.232085331112717e-11
1.170825690297877e-09
2.202929319731218e-11
1.174223190285973e-09
2.202069779371068e-11
1.181345307924755e-09
1.188253926870686e-09
2.23334917983238e-11
1.194513552554973e-09
2.278622628633262e-11
1.197342205788444e-09
2.33875879099351e-11
1.197160881354611e-09
1.196591305683699e-09
0.01693845972497261
1.196354999405879e-09
1.197239352290911e-09
2.399311611923704e-11
1.193068550397973e-09
2.411306189817122e-11
1.184383399490683e-09
1.175423700881008e-09
2.433639332809883e-11
1.165763071019565e-09
2.48996682048801e-11
1.158990976202126e-09
2.562142111718344e-11
1.159337500068273e-09
1.164794571904411e-09
1.171087858376346e-09
2.623726962455015e-11
1.180847558283344e-09
2.675915304007912e-11
1.188406814892659e-09
1.192631398072406e-09
2.741111739043065e-11
1.193803184079034e-09
2.823392100725626e-11
1.192809285236533e-09
2.912062961260427e-11
1.193283736458714e-09
1.195935998315812e-09
2.987388757305827e-11
1.199644972372242e-09
3.057484662979084e-11
1.198384565736428e-09
3.125366198547706e-11
1.191699904901675e-09
1.18616118991838e-09
3.182055476342217e-11
1.181692839787029e-09
3.235483188848003e-11
1.175674546354049e-09
3.278094631964227e-11
1.162625929904516e-09
1.153278544122811e-09
3.327721198911282e-11
1.148867791115245e-09
1.141920166082276e-09
3.418482622374189e-11
1.128761621421924e-09
1.11763955297982e-09
3.493305089267492e-11
1.109793916280912e-09
3.540864321454301e-11
1.103175211509691e-09
1.089078599788719e-09
3.601635623500315e-11
1.075959899972134e-09
1.064134186220257e-09
1.049063006358222e-09
1.038749228615264e-09
3.615238281906333e-11
1.022716812766594e-09
3.580849272002429e-11
1.009527175341111e-09
3.596536277281109e-11
9.981506861452565e-10
9.884593881774733e-10
3.667785118609938e-11
9.779787207443677e-10
9.708947801184543e-10
9.618877804884765e-10
3.673277693716755e-11
9.535421789609722e-10
3.690199583816083e-11
9.42678072262114e-10
3.715917140262059e-11
4.219464009633239e-09
9.559182252180099e-10
9.102210538324055e-10
3.77556671619422e-11
9.061064605195334e-10
3.878620290190474e-11
9.038214304651181e-10
9.020031370078381e-10
8.968173034072881e-10
8.884314917036122e-10
3.993035574374631e-11
8.792545124414034e-10
8.72624983995737e-10
4.01930591118767e-11
8.664653882403592e-10
8.601703022816563e-10
8.556785075552084e-10
8.528588743492789e-10
8.503208291325884e-10
4.209336245188674e-11
8.479717651720925e-10
4.209475203193195e-11
8.471136421826662e-10
8.489822802822768e-10
4.219061526690531e-11
8.557768068335381e-10
4.248105250646255e-11
8.613741551665036e-10
4.326590456756173e-11
8.636194538823547e-10
8.647745142516629e-10
8.658281796575924e-10
8.664854852871313e-10
8.637410185396369e-10
8.599656322669186e-10
8.593452639534298e-10
8.621122975470917e-10
8.628903150296025e-10
4.686705089926702e-11
8.599211337676933e-10
4.580530566693049e-11
8.539356476631245e-10
4.554375065439822e-11
8.438339557084043e-10
8.307222690114251e-10
8.190039161339037e-10
8.124086464477379e-10
8.097689453762924e-10
8.075324343267559e-10
8.044116174381123e-10
8.023666109408961e-10
8.006091848278779e-10
8.01362416558319e-10
4.816491997436538e-11
8.039311760128871e-10
4.657250248587596e-11
8.069600027099756e-10
4.59085329984735e-11
8.084915985812823e-10
8.087864941287388e-10
4.577010404748788e-11
8.08515197467891e-10
8.080507771257514e-10
8.075956173620009e-10
0.01538587735316414
8.066460528948898e-10
8.044422867715523e-10
4.42502021336994e-11
8.02552736864469e-10
0.004532691964134493
4.333220193222309e-11
0.004571617467241438
7.964470204094004e-10
4.292706712364837e-11
7.889241427682831e-10
7.814475750589834e-10
4.286002046719268e-11
7.761495070747675e-10
4.293132876212428e-11
7.765837465969293e-10
4.289895899183432e-11
7.837596845865031e-10
4.265529629450296e-11
7.882168106203018e-10
7.890607501433546e-10
4.244294875548625e-11
4.898443701258572e-09
7.982981934906371e-10
7.867384590095528e-10
7.92699385975309e-10
3.952548856835845e-11
8.017536417074957e-10
3.768720465896309e-11
8.060337867268644e-10
8.044185348607293e-10
3.652781819254916e-11
7.968173471488584e-10
3.611374148399513e-11
0.0254481372466331
7.795870935508994e-10
0.009965266455997971
7.599708213066999e-10
0.0101386692983978
7.450301877946429e-10
7.283174369244368e-10
0.01018499004113224
7.101571296679373e-10
0.01034104072647186
0.02981873127503508
6.92244456640703e-10
0.002607141623055787
6.824036922000359e-10
0.03534834344927259
0.02318496441522213
6.695572112334879e-10
0.00464581052050263
2.58967870803551e-11
0.01415649121103812
0.02219573014766745
6.520031763829834e-10
5.441322890685544e-11
6.406675708999888e-10
8.342911298257964e-11
1.827614799105687e-10
0.00697414037575359
6.11097913452709e-10
4.605260335104534e-10
0.008735614275897264
5.867827508254634e-10
1.291954259187019e-09
7.036092422552848e-10
1.641944621894569e-11
0.01048553863187806
1.020096264047626e-09
0.002146592844376175
0.0009049147924686191
0.001194302570113582
0.00161794928238594
0.02897424205990611
0.02381658357046335
0.01617778509678281
0.0143215116935012
0.01189653546825517
0.009183138219497807
0.006603019385446646
0.006348411385325169
0.004730790718063244
0.003392199553967872
0.001717268042450965
0.0007766712644322291
4.210590692505094e-05
3.491903258934609e-05
3.426245256953066e-05
3.599817732624085e-05
5.338446878697892e-05
5.549278105842138e-05
2.799853164706622e-05
0.0002982518342264778
0.0003195274507728116
0.0003200691686235377
0.0003221450922651421
0.0003219762164964967
0.0003222830248569733
0.0003224182704105298
0.0003224294629625254
0.0003204127285034793
0.0003199762754427062
0.000319523750778123
0.0003165110676271745
0.000309192290735249
0.0003048716211934494
0.0003071412555742597
0.0002846539892339147
0.0002596880358786982
0.0002540579638424966
0.0002219455975163705
0.0001999886036998934
0.0002033182765418177
0.0002056128967310667
0.0002084236222815788
0.0002430880301180406
0.0002500965635897981
0.000257545296477388
0.0003146957384005749
0.0003035542693425486
0.0003800581010873561
0.0003950526429364365
0.0004104324034146318
0.0004901828499842727
0.0006124659444080076
0.0007198103717821752
0.0007934315079888375
0.0009166029468263413
0.0009409548993318729
0.001168421927597755
0.001134173647102672
0.001204051832038183
0.001240053384981759
0.001444384353196585
0.001465390147196749
0.001489010314811845
0.001514365850471519
0.001534229220991775
0.001557927779230793
0.001583032072638045
0.001797032615522587
0.001905197065308489
0.00197632721374339
0.001998902021565331
0.002020097689758696
0.002116629873217599
0.002142615438956443
0.002361622399888227
0.002465332256656605
0.00245163204751185
0.002614594499098657
0.002648615167983182
0.002748158466944991
0.002773117832550084
0.002802024824158336
0.002824485130225882
0.002845296491967082
0.002999218751345658
0.002963788164577309
0.003028613624879872
0.003058854332094922
0.003197266046587704
0.00330417986310437
0.003417525356656393
0.003442435961762978
0.003513141064897748
0.003541965300683063
0.003651762387936864
0.003629174681989888
0.00376801116147402
0.003895806024238351
0.003914328050260274
0.00407945087082795
0.004091650392666206
0.004100410632678645
0.004110754701537205
0.004121605802858629
0.004140831738255229
0.004162475611015098
0.004267212010777914
0.004284747722340481
0.004299937538762746
0.004314253329747704
0.004346193822175503
0.004335297587009346
0.00435368394358914
0.004384917475547648
0.004506326956198578
0.004612333800149492
0.004596426376379385
0.004702275503529962
0.0335064168719125
0.02013319618784298
0.03686972855563254
0.02459636313912621
0.02372559630877272
0.02282433362710979
0.02192068144426698
0.0210870477268327
0.02024660087597716
0.01948645937907489
0.01886728011938066
0.01832391936128866
0.01780076327435491
0.01492159088746464
0.01444601103426475
0.01301517062914891
0.01297584028649405
0.01292302471682504
0.01285129997835983
0.01275021930773769
0.01258810272190069
0.01244404158443205
0.01251796707962309
0.01265131965096765
0.01279381484255281
0.01288181248764076
0.01346559102363993
0.01359113298735453
0.01373728278005423
0.01395711764105966
0.01403392445893248
0.01448232127788844
0.01452027214216511
0.0146883059004985
0.0147743983699774
0.01548639931619472
0.01656088016817634
0.01698323835052317
0.01777666227311832
0.01784887745092848
0.01793003537502748
0.0180388926829985
0.0181143661235976
0.01832046733873133
0.01889311569524858
0.01948063307078025
0.02031292737720882
0.02083392896525029
0.0209040323832669
0.02341538606915988
0.02359645346424712
0.02374668448318746
0.02374401115019847
0.02372427343359401
0.02367354388833791
0.02421344433876539
0.0253168805674572
0.02576484875411007
0.02575774506885842
0.02583094585359606
0.02706334673408828
0.0273398424702221
0.02873066259673633
0.02881908323904197
0.02870711931507157
0.0285856414598387
0.02824572892680601
0.02813666064788504
0.02926651514419191
0.02946907754048764
0.02931784872881625
0.02912508709158581
0.02908638426678732
0.02981759697123039
0.03071139604403987
0.03079139065847092
0.03064399134097541
0.03044958279073661
0.03038366164761735
0.03051558920532731
0.03173196171177618
0.03119253142594329
0.03207231558859472
0.03211290396672099
0.03306249289740246
0.03328612785355192
0.03317971764740039
0.03297244936567832
0.03166370015476781
0.03145337944855849
0.03316306074587951
0.03310307790431719
0.03287159349340874
0.03250570237254371
0.03210846979457534
0.03183296583592423
0.03088151109616837
0.03035601405215307
0.02969635846736406
0.02270551031653643
0.02790626714046436
0.02610345984562249
0.02475502281313339
0.02099350998903836
0.02297524902927648
0.02243044658922408
0.02130868968780542
0.01980258315360235
0.01796820894880739
0.01571469551627699
0.01468502048658728
0.01338074606737433
0.01180425958994753
0.01005400060879285
0.008637097927290225
0.005793703279519121
0.003542407457584516
0.002070585464917313
0.001182642442102003
0.0001444030615773109
3.010461781732789e-05
2.575389737796106e-05
2.64827924547865e-05
2.677685988828288e-05
2.749801607338131e-05
2.879849409902424e-05
3.076760791135304e-05
3.389600292754302e-05
3.949937244365511e-05
4.405058747347609e-05
4.934358741370617e-05
7.272047456084273e-05
7.328700163581552e-05
2.203766886366104e-05
2.959261132942093e-05
4.284119271519407e-05
5.225752301401727e-05
5.17176961732108e-05
5.911172265738535e-05
6.764148199785753e-05
7.309423588732811e-05
7.841949606604345e-05
8.439244725542932e-05
9.097914678019948e-05
9.791055426608366e-05
0.0001054837186606515
0.000113728295176606
0.0001227360713967745
0.000132817095715404
0.0001422010847366166
0.0001491288627560737
0.0001498147144736945
0.0001528776777313362
0.0001643539561902774
0.0001819687160052975
0.0002077265069423339
0.000248088063497949
0.0002763064090884791
0.000282245764038675
0.000284166757136178
0.0002857099600017888
0.000287803616736517
0.0002930345852715261
0.0002646276413683835
0.0002495542510087613
0.0003003699341009127
0.000311335867898643
0.000318809942092135
0.0002786816513054796
0.0002792133148952639
0.0003205011199927084
0.0003208134155911611
0.0003210285265506132
0.0003211747360228101
0.0003213365844714456
0.0003215096842248092
0.0003217369398513914
0.0002790033687466718
0.0002787126212883793
0.0002782172849073566
0.0002774944384940066
0.0003225240528481902
0.0003225935402267516
0.0003226195152470498
0.0003225942769437644
0.0002681048531307868
0.0003221439185535426
0.0003218335868452005
0.0003214885580148662
0.0003211162821132719
0.0003207531021027413
0.0002351774818243503
0.000227594759459208
0.0002197167125258796
0.000319031786907747
0.0003184869351663868
0.0003178909148987064
0.0003172649172212078
0.0001824568479028241
0.0003156126751363631
0.0003146578803368993
0.0003136218148886106
0.0003124318943290874
0.0003109705675610513
0.000159596870009884
0.0001590327554362222
0.0001594293069010595
0.0002993042217289628
0.0003022715774745049
0.0002960210190315454
0.0002925251932124538
0.0002887721019494391
0.0001824828472842358
0.0002754267682348845
0.0002801730372853523
0.0002703202561995918
0.0002651092003621352
0.0002270273684360838
0.0002384519651515961
0.0002484482949700579
0.0002428499944723084
0.0002373312074170933
0.0002319560536042971
0.0002268256854482533
0.0003240493021107951
0.0002133332905700741
0.0002174176745612478
0.0002096544201082105
0.0002064791186079361
0.0002039095668355191
0.0002019314051717845
0.0002006555950041502
0.0004921680665547667
0.0001999703529159543
0.0002005010282512614
0.0002016374892621814
0.0005942921107423729
0.0006218530947216636
0.000650031728117465
0.0002117749894684846
0.0002156820338739061
0.000220167740323313
0.0002251849744212701
0.0002306793575468226
0.000236643198162251
0.0008405311807211934
0.000864389134695975
0.0008894368084248329
0.0002654942294404393
0.0002740048885383075
0.0002831928164820579
0.0002930017895343434
0.001021999923827132
0.001049439424750602
0.0003266372154263733
0.0003390629038187927
0.0003521127571191281
0.0003656968279037587
0.00119800052438578
0.001229867220632242
0.001262796494599203
0.000425929548660117
0.0004417859148394466
0.000457669658244984
0.0004738096237918437
0.001413587729488476
0.0005067831672080185
0.0005236313056148723
0.0005406072347190799
0.0005578864655964679
0.0005755694202160404
0.0005937006051345721
0.001632619958497667
0.0006319831672618609
0.0006524135366900234
0.0006738107160500049
0.0006962102309645815
0.001780986025038669
0.0007687071484274437
0.0007440575549661313
0.00186698809406502
0.0008181987755112861
0.0008431286770172288
0.0008678790141185828
0.001982398529546414
0.002011595131523946
0.0008922918523740291
0.00204275955011901
0.0009655919946500335
0.0009907216514645303
0.001016647848190885
0.001043650194447892
0.001102120118515774
0.001072052607238705
0.002232461308377561
0.002253221465899353
0.002274863595026309
0.002295007468502023
0.001265852102548492
0.00128748455975396
0.001309669113003108
0.001331083882138575
0.001353857936520091
0.001377024064356094
0.001399903898311354
0.001423599329665618
0.002496751275071996
0.002517261801919188
0.002542764761118486
0.002566889239006929
0.002586557298535123
0.002607684440430462
0.002628966571468325
0.001603043614774531
0.001626547853450778
0.001648420989217879
0.001669574660628623
0.001693708103963923
0.001717996505152942
0.001743298874997579
0.001767252816629269
0.002792786434635712
0.001825034132194522
0.001851496756015677
0.001878503021398204
0.002877252811120525
0.001929000617654038
0.002885746858431322
0.002896736816487656
0.002909127209310464
0.002043868455119603
0.002068695175148991
0.002091306259707857
0.00297319477624252
0.002993989081111939
0.002171031633468589
0.002201340622839276
0.002233747204792312
0.003094942834918063
0.003115317193958521
0.002301707781929672
0.003131538668098519
0.002384941933369112
0.002402334937274093
0.002416490385364021
0.003151033238684932
0.003157714163375445
0.002432848642006364
0.003174046217185655
0.002481064366080706
0.002499703657177051
0.002525541302435483
0.002554745326016353
0.002583983989108569
0.003325061414805596
0.003350427189400979
0.002675273783241158
0.002699963270320633
0.002729668623088954
0.003460681116973837
0.003480026612185432
0.003507851983184824
0.003533868627016984
0.003562001271407572
0.002867087088996684
0.002893850901511385
0.002912174226799826
0.002940682878754486
0.003717383457964101
0.003759539448970523
0.003788363309198775
0.003825843843349402
0.003095366824442555
0.003139126067498118
0.00316953011279721
0.003993339315810807
0.00324448810291906
0.003226096132233066
0.0032712899170979
0.004149244354978121
0.003331718348194869
0.003357241486204728
0.003391975746131187
0.004271973822563177
0.004291449229164474
0.003469853544021198
0.003490601901619465
0.004368293583344359
0.004392490731186642
0.003583369540145897
0.003554060169557052
0.003594252319114164
0.004457891488021341
0.004467203397595947
0.003672857727847919
0.003695402292412529
0.003727023643509287
0.00374603127796042
0.004501913113647844
0.003798981202773148
0.003821363085222478
0.00383826816875254
0.003864791188790487
0.004543930812427367
0.004553719527464035
0.003937968484009358
0.003968401334877598
0.003990829062608767
0.004015026157130274
0.004025276973788582
0.004607012542513141
0.004622257343341127
0.004062274740561618
0.004637512191057425
0.004653620694335754
0.004669978146173321
0.004686169731168
0.004701608445246527
0.004715519615861048
0.00417774101687125
0.004195195301635072
0.004212399890445593
0.004235250049686915
0.004250259736850494
0.004770382364185474
0.004779336634973758
0.004787913564590037
0.004796900961461814
0.004316912009180988
0.004323675016965892
0.004323474058967274
0.004329631353684892
0.004866151060759451
0.004877330639375924
0.00430689913107808
0.004887458805077288
0.004895275140888395
0.004357872492596301
0.004365507333712836
0.004371910314143208
0.004375629374774998
0.004920289147792333
0.004393227616178221
0.004403151785053111
0.004416311860147985
0.004435259452318769
0.004455073149466727
0.004495025358432881
0.004478846985744742
0.005015503763075673
0.004518039892152358
0.004513294429697438
0.005044507909516603
0.005048322905105731
0.004550950370460902
0.005051242614111924
0.005053976559124364
0.004636152215661649
0.004650577566417368
0.004666894909792734
0.00468158591926357
0.004692166191000416
0.004696684748304133
0.005098983778871392
0.004710295450444208
0.004701598350911238
0.004724333459991047
0.004736041100013766
0.004729403422049038
0.00473809705173896
0.004752758921875871
0.004763281907636253
0.004755736401083368
0.004761966418166438
0.004761049539968812
0.004737430610739785
0.004840635582233493
0.004446434823612693
0.004257438959886497
0.003841982434964719
0.00369232432346542
0.0009910033826249652
0.01251353540103726
0.02283988311702977
0.01781382860564881
0.01658868173481277
0.02748721335989356
0.02694982783192448
0.02676524638012684
0.01557536838392395
0.01504537124189311
0.01449011422131791
0.01389867975596118
0.01328662482515874
0.01274583740172335
0.01217415439479998
0.01168247341054143
0.01132337536027047
0.01101117739605766
0.01069955230181285
0.01731377386760834
0.01686221692142595
0.01636651039547964
0.01583391008191508
0.009176456933554327
0.008900730343355274
0.008613807789238318
0.01402894174276111
0.0136432448246659
0.01330460315699426
0.01309551479981219
0.007954283854414363
0.007947946159057325
0.007916295347745269
0.007885954629962231
0.007833933033837576
0.007701030296116674
0.01246876268540487
0.01239693448307204
0.01239782862306762
0.007629369457559007
0.007686482088705726
0.007790586181513594
0.007896029921372607
0.007935607721397073
0.0129398546043115
0.01300347151086224
0.01310157529872627
0.01322329645383471
0.01334868699740214
0.008270638734987314
0.008331302726647836
0.008417011930504283
0.0138376465896318
0.01389581479519989
0.008486141887123188
0.00853036275454443
0.01412095800729262
0.01420732938279288
0.01429985965000306
0.0143962220831405
0.01445372068506443
0.008823570375206022
0.00883257145616843
0.01454894750625171
0.01458626974800451
0.01463051183549376
0.008859945162229644
0.008905479930721683
0.01489059702678415
0.01504039383189815
0.01519863881159214
0.01535273068789228
0.009298547912515888
0.01563013395806642
0.01576659293324826
0.01589726732776596
0.01601873615721705
0.01611359067302353
0.01619857843888937
0.01627005129366997
0.01632887326843163
0.01638513504782905
0.01645235801397375
0.01651815150010001
0.01655227320588713
0.009911682095257817
0.01660038835116656
0.01666428066033617
0.01673990499956325
0.0168342986568754
0.01690415773256744
0.01010235004608695
0.01011118611396798
0.01705614410102421
0.01715520846836729
0.01726674924351468
0.01739511800685704
0.01753793724190866
0.01768364002785535
0.01055873776315658
0.01058653851644731
0.01063294378863865
0.01072114080609475
0.0107617014276773
0.01814016264851427
0.01816918616142604
0.01824016456050077
0.01091083549108298
0.01842343846126388
0.01852931016940704
0.01864708796618102
0.01878387977037608
0.01131089562615644
0.01902283088577383
0.01916654811971464
0.01932889432162155
0.01169417055534629
0.01965339469009958
0.01982201384721517
0.01998490317613399
0.02015574157784948
0.01224552021012505
0.02048545907539966
0.02064768556494694
0.02075810557291869
0.01263193273625754
0.01266935080524361
0.02095254489622463
0.02100410584197515
0.02105338433935461
0.02111637941860084
0.02120522105117821
0.02132772604015331
0.02149565843317208
0.02177029608806165
0.02215711934671605
0.02260109179790713
0.02296605354655843
0.01430396564040041
0.02321881253239358
0.01441636740751314
0.01454231852360824
0.02370164191603333
0.02374488931915504
0.01463541869226138