/*--------------------------------*- C++ -*----------------------------------*\
| =========                 |                                                 |
| \\      /  F ield         | OpenFOAM: The Open Source CFD Toolbox           |
|  \\    /   O peration     | Version:  v1912                                 |
|   \\  /    A nd           | Website:  www.openfoam.com                      |
|    \\/     M anipulation  |                                                 |
\*---------------------------------------------------------------------------*/
FoamFile
{
    version     2.0;
    format      ascii;
    class       volScalarField;
    location    "2000";
    object      k;
}
// * * * * * * * * * * * * * * * * * * * * * * * * * * * * * * * * * * * * * //

dimensions      [0 2 -2 0 0 0 0];


internalField   nonuniform List<scalar> 
104311
(
3.163486782084318
3.267978073961503
3.239044848786492
4.255544408980354
5.689181450131159
10.26058143926038
2.95074904524563
4.856970891422598
2.63177765981494
2.492414046393366
1.788355365729906
2.366692537312394
3.050135608945306
0.8132216591406323
2.686147829895036
0.509530361102758
0.02379228207171186
1.476749470611867
0.092892136635009
0.2521639104889885
0.1489221147791562
0.1277633717198841
0.06101709847549798
0.1027597010313302
0.004444309433040416
0.00187329354432467
0.02228670600423664
0.0522392446777178
0.2143847255849352
0.3189131096274017
0.08402758302991804
0.3959451956946244
0.4364025970024696
0.113289611359691
0.4543123103515561
0.1389495397979953
0.4583324062407698
0.1647658371581391
0.4460083268502508
0.1961423870395715
0.4246890213596397
0.2313862990672331
0.266832781559866
0.3037976634491312
0.2649201865562256
0.2375510756508269
0.3549111345039768
0.2098570298299351
0.4099855570051096
0.4433041743181015
0.4617679367955661
0.4670422564302974
0.09460617596415154
0.4661748067856438
0.08573791511544213
0.4778643241585598
0.07900342244283613
0.07273674225769082
0.5025306903041727
0.5231601380636826
0.06042743266044771
0.05423773460640566
0.5426255174380397
0.04859907737255705
0.5627711795994549
0.04497271163412914
0.5855028751099979
0.04318155063219838
0.6139192055401447
1.479863654647386
0.6451121000195524
0.04251018217922857
0.6699510687106376
0.04235006137258727
0.0418845483271078
0.6806968045048222
0.6874827007011503
0.6985444530785897
0.03508619169617799
0.706319716615333
0.03296707418169309
0.7121932962260024
0.03042258800753827
0.7165447705028918
0.718545686080024
0.02732644290328573
0.02631898293215334
0.7198633842543899
0.02493060841622498
0.725755557387622
0.02369725484005403
0.7364094454649728
0.02294915968028191
0.7487639350138745
0.765509010203248
0.7826758402482856
0.7967890604033231
0.02144712995573579
0.8077064343237876
0.02077206831512309
0.0199002283991526
0.8154816026943866
0.01921492220676642
0.81968288924717
0.01885549904571651
0.8207848588326613
0.01869091496759814
0.820927768582946
0.01887680570988909
0.8194896302378943
0.01895651265390217
0.8199651371244202
0.01963765812781389
0.8231678035232545
0.02012812305098809
0.8263633383600872
0.020454153680938
0.8281248769243336
0.02099715207815579
0.8310184272170766
0.02157572316767587
0.8358223197333299
0.02197370561876618
0.8417601756403122
0.02167538264126991
0.8493066743735384
0.02115041930110893
0.8574376704106964
0.0201743924602116
0.8706139584387607
0.01950215032120962
0.8866159706017001
0.8994494854544212
0.01854213343200585
0.01795690221823345
0.9071581114381787
0.01714074974600843
0.9140255667928633
0.01633523993484298
0.9230357510375143
0.01546810410043674
0.9306802811016963
0.01472006412492666
0.9345074948545093
0.9369639582785421
0.01331334575103967
0.9377418365767385
0.01256391263512511
0.9375128654835534
0.9371382592866181
0.01035780444161459
0.9376708926451379
0.009973968262067218
0.9290265159525704
0.009722426820006239
0.9082808675740025
0.8983054539991664
0.009557683917321463
0.928039318602132
0.009532468389758601
0.9526662666800948
0.009321055896619903
0.9667625356925408
0.008917132509591601
0.00847158367990407
0.9762585493098936
0.008085706780480185
0.9814493304567965
0.007740296482806793
0.984857279770062
0.9857967252983542
0.9848340697523961
0.9859123413341316
0.9915087448086344
0.00553624467008477
0.99958730225458
0.005196839168937741
1.003699371112263
0.005001262598072572
1.005051265506858
0.004985532959414615
1.002023887457195
0.004998850733238828
0.9981991890044616
0.004920794825376187
0.997201113639049
0.004796946301580523
0.9965599655632766
0.004542512871031633
0.9947191046917205
0.9918024917030043
0.9890744556957457
0.004106252196570839
0.003982397579489914
0.9893413728500648
0.9922055467241784
0.9980440828071757
1.008206068317115
1.019608310410539
0.002500814625784555
1.026527249432502
0.002263013828010297
1.029821742108016
0.002013628664034831
1.033972149837854
0.001781029803059363
1.039243274641697
0.001617013732285753
1.049868204845783
0.001465761567826204
1.062954190709882
0.001323207993913112
1.072376753646881
0.001204063483953376
1.077764892099298
0.001097947806270896
1.082116267748164
0.001003591007588443
1.084958604860625
0.0009130812361911384
1.083712151688901
0.0008109795318352314
1.0820480111183
0.0007111994587410712
1.081585143722717
0.0006425891634376514
1.084907773003914
1.089657492019274
0.0005543487753240227
1.091769758603202
0.0004811293722958803
1.090496607386546
0.000382328547299912
1.085525542189469
377.8054760612084
1.082446799273427
1.081100663675788
0.0002495889169934288
1.075679047623426
0.000256571228038455
1.08033778513873
1.063525802715165
0.0003045063481458177
1.054286949449704
0.0003606642869518537
1.051024395584046
0.0004077562322726609
1.041145639248299
0.000455460690074913
1.013396967491468
1.000317315589718
0.0005145273145915772
1.028029777270024
0.0005757244637636798
1.052221783853879
0.0006506059248521551
1.057197085089902
0.0007085517844645106
1.038179497919661
0.0007543601148305285
1.03049241463713
0.0008839763054680708
1.062033760019289
1.095162126159415
1.115366019686573
333.2666521352829
1.124872034932642
1.128745530620841
0.001229270257606488
0.001247982562177991
1.12948154978299
1.129732433705892
0.001341323061672842
1.128359960636098
0.001531124911501027
1.12666395419716
1.122615178316724
0.001783960258857095
1.119503324129209
0.001941621534059293
1.120208384376362
0.002134607217150242
1.121378951070281
1.124691684172601
0.002437991218718788
1.13236278990315
0.002688532126274398
1.140779441986711
1.161856660528994
0.003045223155211085
1.14428663908444
0.003390749993368051
1.143164062638478
0.003620818950017958
1.156042970811959
0.003742042645090231
1.172897306210572
1.188515158991385
0.003817632535849916
1.199807188892888
0.003903948678064989
1.204726425264208
0.00398580531262015
1.204447862320881
0.004030272385120845
1.200984916132207
0.004205154960165472
1.194295895254157
0.00441302173153538
1.184319997368643
0.004641452559649027
1.172719905326725
0.005032686130950929
1.163733180429743
1.160874013802284
1.163150760118125
1.169761777668488
1.1763728056178
0.006121828493771719
1.181892785864748
0.006259920275208821
1.187513186728498
0.006750705170629281
1.192705977900473
0.007564993067326406
1.197954843268117
1.200304242679935
0.008296841736936345
1.199955931519304
0.008839853697807605
1.19788949486707
0.009257355814999344
1.196010883370333
0.009548146075076189
1.196267725128033
0.009745520627960344
1.197247215170667
0.009912656071405856
1.199350192507315
0.01010705858956371
1.20429408718064
1.213169553157154
1.223426148304491
1.23281178028324
0.01012422223408805
1.243219531139689
0.01032068414187293
1.25399040757429
0.01074313615092689
1.261835604045672
1.268332102105751
0.01130150812584461
1.271580888583697
0.0118325270367954
1.271328495746203
0.01227512770894283
1.272177049172704
0.01262210812132456
1.271309757957589
0.0130092899702446
1.266121968616894
1.258737973258985
77.80363068809497
1.249149602173843
0.01322075134551228
1.235373601625754
0.01334952333341935
1.22171479662014
0.01359847165584177
1.212263481710372
1.209304980845268
1.212049555949219
0.01395316438968163
1.223110180114241
0.0142512827089731
1.236994447191756
0.01459492268155546
1.246657739089234
0.01505567950010481
1.256437235004314
1.268056793031382
1.277686490629188
0.01533828288893828
1.28209281342234
0.01537970853663446
1.279523625247559
94.67617569570515
0.0154977669020281
97.27149682427249
1.266951760015608
1.243652202466173
1.219678205713991
1.200317292308703
1.185886591436539
1.169781113853906
1.150645873204391
1.133115154088376
0.01874169309969756
1.125728766883648
0.01848937291581327
1.12706272687223
0.01846761396365226
1.132803955621408
1.139209777826216
0.01871284614907467
1.145452427284785
0.01907704066809053
1.14884728568473
0.01956793154529932
1.149151771718772
1.149269772047573
207.3164729654797
1.14957906079703
1.150279298194704
0.02004274842176583
1.145659139162634
0.02013472123875709
1.13539913365582
1.124214141695905
0.02030502374120014
1.1121113685146
0.02075773295894469
1.102668642791676
0.02134843954846141
1.099970480832666
1.102106026890949
1.10529609277358
0.02184016210710088
1.111935735256113
0.02226703954204768
1.117310417424825
1.119446561959851
0.02279788705329664
1.119300113231541
0.02346987660702005
1.117326572813862
0.0241947764614986
1.116903475710017
1.118388357729721
0.02480800600980956
1.12067962034721
0.02537741620664201
1.118200898062243
0.02592788316481235
1.109751483359017
1.102210610063556
0.02638174407988952
1.095460793243892
0.02680953394301209
1.087187229087712
0.02714700456028704
1.072020236143119
1.060459655677992
0.02754111624421044
1.05421704094916
1.045296570280472
0.0282983721247133
1.030814856477525
1.018294199947913
0.02888046512568008
1.009211773932352
0.02925625353459824
1.001146297546643
0.9866743767488698
0.02974928473369465
0.9739177748815787
0.9628954849833006
0.9498181127743263
0.9407528082882008
0.02983896157999525
0.9274446805523859
0.02954780532418408
0.9170537130912059
0.02966596813446015
0.908304444158168
0.900617777553543
0.0302383904323452
0.8921038920591435
0.8857489840598879
0.8777222687878949
0.03027524442592373
0.869867892378909
0.03040658738365366
0.8593352047377965
0.03060274280331648
0.5987279772529103
0.869086780619195
0.828070099074333
0.03107928544997582
0.8231193690785955
0.0319158449659294
0.8201057677433524
0.8174093744789127
0.8117065315991875
0.8029825289618712
0.03283425152385794
0.7933658718289112
0.7856922538546902
0.03304106130534961
0.7782158182433928
0.7704563709389849
0.7642901441434818
0.7597310253571741
0.7557108958581331
0.0345678338657921
0.7522323054146808
0.03455898246431444
0.7504754818810256
0.7516613501153045
0.03462254832169588
0.7577446769645193
0.03484736161631495
0.7630419659555511
0.03548152570346987
0.7654688542951543
0.7668251753440277
0.767764751004926
0.7679515254982191
0.7646236269776656
0.7596233800713076
0.7568168970337372
0.7565094030571026
0.7543422331570008
0.03841311690379404
0.7491172488006995
0.03752524415344286
0.7415897794319792
0.0372963239457128
0.7308386961624883
0.7180866432238803
0.7070302482343519
0.7008664193865762
0.6983820685836025
0.6962955376864433
0.6934749990692179
0.6912350399239833
0.6890800462798011
0.6887388844606965
0.03940651829042388
0.6896309514943043
0.03808423509340337
0.690672584199154
0.0375181456959853
0.6902761414811128
0.6887677030843725
0.03738734245232186
0.6871043515012312
0.6852727273252853
0.6837563150349458
233.9713073099127
0.6823153497257533
0.6803852095677668
0.03610968538478292
0.6788157277496445
228.3734441442224
0.03534431206420485
228.2491630130945
0.6740369545115649
0.03499620838652096
0.668297449880803
0.6626120633645598
0.03492692009428057
0.6586719691011343
0.03497042173539313
0.6592253444654931
0.03492715195726564
0.6648882175887201
0.03471511703461128
0.6678359533890043
0.6671832249994263
0.03452782347568524
0.6376247030060582
0.6733375924515544
0.6616225448168994
0.6642631358114562
0.03212146288667275
0.6693256659714831
0.03061774248917673
0.6711272179585055
0.6681834083470416
0.02966911296273511
0.6604903897186077
0.02932888035451181
408.095371590113
0.6456942444736893
320.9561690779922
0.6298592764767619
340.1972695344431
0.6173574116594834
0.6031288050088495
359.7083046738391
0.5876156116917237
381.3458900477298
538.0309966692679
0.572145988357237
195.4950311787808
0.562991854765424
657.2385159162047
580.9238243197225
0.5514733223152012
205.801385360899
0.03218846627697878
564.6381922152469
624.3883392200938
0.5348280234707072
0.07332843648361667
0.5234194705460935
0.07292954968543193
0.1607069497208687
488.7926218660936
0.4974146750268931
0.4095889160759865
516.311731418669
0.4753078722055508
1.170362474287776
0.5666857368500207
0.02368125225542882
587.7173220832342
1.120585542795818
268.7059343367043
186.7123965377718
197.5042972985193
202.2638441021802
2427.990694103933
2892.838127713413
3192.776851214867
3221.398928731849
3142.26003461769
2969.027416775246
2797.409931318539
3577.000986310632
3506.634947171954
2157.214521756694
733.2612373239946
155.0804582999029
8.926668141290685
3.12293451431629
3.079876157502888
3.167294212549419
1.358741852881674
1.458800258039227
1.232549505399583
1.474272987340326
1.453539708447194
1.447497602473329
1.384026144608156
1.390904698528047
1.377578152932487
1.371454148198591
1.342912065865543
1.303137107906083
1.296360867451363
1.289637187167997
1.258261763976559
1.225895399685763
1.218271502229146
1.221949711308818
1.206142005234156
1.224522716068223
1.232635803368743
1.329489810567905
1.700834128843779
2.042764907506253
2.148640250905455
2.263456992916448
3.369664674794195
3.577117506990921
3.79917131281877
5.530045269237371
5.186440165907407
7.587001125271958
8.067467611615111
8.568615647486666
11.25686377509625
15.47627630568594
19.2652427964229
21.92296977684194
26.41951331877382
27.30321049269755
35.65334377635919
34.37712415382062
36.98114445518233
38.32740537231553
50.1185633887829
51.38927278489836
52.68393655173131
53.98313801227099
55.27719292368432
56.59386572343107
57.90537045416783
69.40139316794981
74.77473024183583
79.37609898775443
80.96572360900392
82.55580779343738
88.51827889418433
89.82622841439148
98.73580717469038
109.3622732246461
107.5066228465088
119.3848349768577
120.8561212498504
126.7744749236476
128.398060803441
130.0560249285548
131.7318068014476
133.4384112198152
143.46050908385
141.9276659077648
144.9841606325371
146.4916764045729
152.528578279799
159.2690223951271
166.5163562131429
168.3827259222527
174.104212034084
176.0432061938507
185.3992539727748
183.5968235486213
193.3830237043944
200.1762127267171
201.4015049148902
208.5428505582143
209.4798013271872
210.4392557390764
211.4019037498274
212.3496077335186
213.258645567043
214.1045613591573
217.4295325008245
217.8389134331143
218.2679742727259
218.7117256211847
222.3610134349508
221.9263710287692
222.7746092761139
224.7395142891287
227.9344390818776
227.9046997743091
228.0715454040687
226.794918987696
655.9662832056582
651.4359558251264
638.8453032632224
388.8067954630521
371.1991130894227
354.8200553786622
339.4899199005334
325.8659620834184
313.3645976525885
302.0077079243496
291.982678573499
282.912804933928
274.1808473562499
227.1093287998848
220.8409300086375
198.8049570106039
195.8928361480994
193.2600105926489
190.9536566642982
189.1547639107253
187.3504304071651
181.7342153055853
181.3027119211143
181.7747921026987
182.9112460038438
183.8205586493057
186.0692874848465
186.5313155732533
187.5376734287749
190.5130049864983
191.6033538046129
196.3838150653832
196.507083595279
197.1948792119431
197.6684945617421
202.4505346068293
208.6609247882909
207.2075141051792
207.993492002433
208.0140648625299
208.2325757237049
208.7992680740388
209.5018241528836
214.0167516407745
221.9563232559366
229.4147741479929
240.1541324395362
245.3024272471278
246.4314539045247
273.8842902690802
276.389325617634
284.7834970627017
287.5763865142503
289.9306674152524
291.8439173271368
308.8596296246423
323.4533154022806
334.5792233211953
336.0237135046909
356.0682786574386
380.8646759599282
394.609512394588
461.2801625876908
467.6407728503982
472.5217263567315
475.0554980914121
471.2358619853421
469.0151701196374
514.9809083572086
526.2414110170807
534.278399652846
539.6676610020266
543.3081328476371
575.3455704885407
620.9261193101181
635.4500135647282
647.7482780095148
657.322448725114
664.9333539709504
672.6093021359976
713.7637382008811
732.0093875465384
905.4032644751007
918.8770935795718
1032.537716046858
1116.533568422494
1133.883214731676
1146.977596877485
1174.051257313199
1181.241120977283
1398.137686370377
1656.028918284229
1706.887137775843
1749.662327297754
1793.635819887733
1852.687407950652
2178.278417547527
2264.358430654959
2346.22417880402
1944.374683533186
2518.500875694447
2623.573733263219
2749.95768915552
2220.505046088704
3042.614032317005
3157.607359694065
3206.326476435213
3208.288503587064
3187.79987889776
2251.823162870348
2191.825794070807
2072.813723741738
1883.788021612232
1670.01852501932
1960.86863794671
2714.557459028976
3088.222395225137
1806.423194731178
589.0143690667686
55.05062188722822
3.163048117267113
3.050109891636451
3.117483546957732
3.192704377131979
3.280991916597337
3.380989909355544
3.486951148723478
3.587671969918357
3.635509781830138
3.336288491250293
2.903926577031458
2.586042886142805
2.44665037432903
1.182892878665839
1.277328953236351
1.408895212627025
1.45749882928211
1.882401271949511
1.520948238046705
1.558277023553903
1.558887784921406
1.559551474384466
1.558531335734045
1.55654997239692
1.553517534175348
1.549756119709179
1.545570265400068
1.54173703021168
1.538796330371171
1.536402814511566
1.533023264555872
1.52994566451204
1.528213118088649
1.52725879645913
1.526216743050016
1.524744284641035
1.521434651250868
1.515952108902781
1.509659666783685
1.50329767422217
1.497134085057976
1.491196914331228
1.485724790836321
1.669703976030237
1.663201516814971
1.469024615256296
1.46432660455453
1.45937146019334
1.644588788842452
1.639268362086086
1.441000029086613
1.434061720420527
1.426897508365498
1.419481062320089
1.411991586599032
1.404586461718344
1.39764781261049
1.568842887556243
1.55895422219008
1.549255912449724
1.539874129363561
1.365616823547448
1.35998358805775
1.35453952235347
1.349117275779294
1.494789070512963
1.336495748286452
1.329864628984674
1.323204604842354
1.316504126306396
1.309971905935061
1.469764848303918
1.47190136536959
1.47720889630383
1.283057290133339
1.276595769470632
1.270341603876784
1.264431483684948
1.573069212197698
1.25232756211067
1.246481815966009
1.240807576400238
1.23547181516878
1.230675847039885
1.95159083685721
2.060122600951524
2.185798688161922
1.211760031361841
1.215081564397546
1.20891433367719
1.207025523299634
1.206300837483881
3.416164514468934
1.209520104624959
1.207419714607998
1.213055206782258
1.218188828502689
5.287516025038619
5.763557062871574
1.242668686749559
1.25472682864205
1.268946093032148
1.285907110517476
1.305936182278754
9.464292979985919
1.389846988577524
1.357550980242495
1.427242600746032
1.469679413327672
1.518066672240855
1.572555142655721
1.633480642475678
17.26144005874373
1.775135581094818
1.856416106742811
1.945638234640897
22.03111815709565
23.30719239874327
24.61853907580986
2.387695250672262
2.522197426710104
2.668093219308521
2.82564717718935
2.994765416331589
3.175720732002195
35.00848791812516
36.64989019804616
38.32515524769754
4.036836403680915
4.291654406498601
4.567375774312776
4.864964634094863
47.34659577969025
49.26595394192037
5.895638815630692
6.283503309105904
6.695051425974722
7.12736179548858
59.10898852484623
61.09447205527872
63.07613081961947
9.081093270718481
9.609837659063039
10.14722788625093
10.6967074344863
72.5767415311379
11.82300850889878
12.40171692843754
12.98787377170333
13.58397787322577
14.1960984996251
14.82447997601114
83.67213965793469
16.15551626065294
16.8722509091905
17.62883850196908
18.42450621286135
91.62153375446395
21.02352564711363
20.13431597215321
96.35116741509722
22.82419911442666
23.73576495399839
24.64327075770821
101.5012912838949
102.5478442690993
25.53506195665017
103.525963373596
28.19610091639788
29.10833247116534
30.04995860412863
31.03430931490443
33.1890786062731
32.07823841718704
110.42375358201
111.5811948901876
112.7399502526502
113.8731132877437
39.69572356470406
41.06004967995462
42.40130379020958
43.71588754562589
45.01470114389932
46.3026578417504
47.58448087213928
48.85563183221009
122.7968588078964
123.6684771696098
124.5508711178548
125.4302732402225
126.3014334611351
127.1937858222391
128.0813069561485
59.20287665990931
60.50714608460873
61.7983207385851
63.08867621905625
64.36983992479985
65.63426382507237
66.89004932840601
68.13733411002828
135.6809307422503
70.68111987618512
71.98948165609198
73.3547296741994
141.4975203157445
76.2675208369009
142.682363977994
143.8965221587748
145.1222131993598
84.11340115718295
85.63148976216991
87.11733697937269
149.697959037001
150.6454714139833
91.06605352178674
92.27016191478951
93.46233965088516
154.6620533250247
155.5124777616612
95.93339160294992
156.4592621484003
100.3318462218658
102.0299357070848
103.7968913276958
161.4455292194652
162.9595424791652
105.6391988932656
164.5052416940327
111.2107574088118
113.007419223002
114.710603639533
116.3168118659577
117.8737833523215
172.7277783828223
173.9289424623653
122.2947655389122
123.7464192473387
125.2391297882174
178.7587520741772
180.0863145424121
181.4465352970357
182.8255884585057
184.2235197505672
135.197173032024
136.9412848004049
138.6392780947494
140.2899016584824
190.9009245123087
192.1016931302537
193.2415723256119
194.3323508365162
148.0288655832611
149.5191514738733
151.0103252778901
198.3869180130693
155.8019224904596
154.1629311860575
157.5329490319332
202.3414892720048
161.0325770153252
162.8471036539212
164.6807965574175
206.4643489536251
207.5563196965112
170.2741688808413
172.169221951856
210.8283488600239
211.906249660543
179.9241204272346
177.9596634398684
181.8073121588812
215.4523383972776
216.2081539235164
187.0999365255718
188.7625045539378
190.3815830765361
191.8547729967796
219.5204618653733
194.8255059687296
196.2043168603762
197.5929803180353
198.8945636596176
220.9155437743054
221.0108545947966
202.5804590402565
203.6742627162828
204.7044585230943
205.6973194442534
206.71910215451
221.8027232754729
222.0705229156243
207.6093081402485
222.3341820353837
222.5961612487654
222.8497479742464
223.1043675548143
223.331036317158
223.4800283662957
214.8656015482086
215.5215534213933
216.0921346168595
216.5855141932845
217.0175675036994
221.4678243573346
220.8696275015358
220.200090356995
219.4850764848178
219.1981931544835
219.6969528378454
220.2303767018704
220.7640417570105
217.7220161027027
217.6905821101963
221.4516968832007
217.7327465347933
217.7629245136945
223.1690961999677
223.5480043161238
223.9277900910566
224.3087993923775
217.1329585397152
225.190073988983
225.648085958903
226.1181509638658
226.5626881030907
226.9791802178725
227.7034147417925
227.3805335229764
216.4226061724317
228.2980558891376
228.1563458108967
216.0897891143903
216.0229318833583
228.2978000559267
215.9344066777359
215.8291432431777
227.6912398190561
227.4939766036226
227.2913327167425
227.1191034035952
226.9059442664539
226.8622250622914
213.2544614521694
226.7480087348637
226.7148670956461
226.5520160811471
226.3070450548098
226.0038239193364
225.55742164505
225.0129874068094
224.3927548228078
223.7202931741068
222.9755721192104
222.1857005318555
221.415695986284
220.2506872791437
205.2222341422371
204.6803630189596
221.2127922517842
223.2289016137
210.6627657140251
609.9001926077204
615.2033835078145
469.9130821685228
434.4946336798067
499.5446039470287
473.8787827432776
451.5288829871737
348.5740883941007
331.7991774409344
316.6469899124735
302.2671213166873
288.5650156781521
276.6501326030899
265.7208580379447
256.0262106038857
247.8409243191821
240.482038562533
233.3022662072054
265.7388212737541
257.6967619743238
249.6556576902671
241.3662777275435
200.3856658527348
195.7372085761532
191.943868655559
215.4495967968492
210.6670115405883
206.176476167405
202.1311348841103
178.9508711377491
176.1835817014903
173.307784881572
170.8729203097717
169.102660156534
167.1293370143564
185.6729798934003
184.1035880810889
182.6574689724083
160.6623903632022
159.8896221212152
160.2703536407324
161.5025170506119
162.1083628750659
184.2591649721372
184.4752917994358
184.8737345764943
185.4535220058629
185.829057356746
163.6270026937625
163.891592213012
164.8873947515955
188.6779642677106
189.55085587113
166.488757824668
167.1252829491495
192.7326835568588
193.7344059957262
194.7127487054177
195.7033685078781
196.227534377638
170.9027601425444
170.7974570037526
196.583335529938
196.7093981244486
196.8789523227571
171.0121469873376
171.3004870842583
198.3275529320405
199.210655037067
200.2571426488975
201.3560828406614
175.1095722588006
203.5817286978748
204.7049725587424
205.763571195598
206.7529218506581
207.5965483992848
208.2827794958628
208.8189684548143
209.1759866158128
209.3737991848571
209.4640597869985
209.4314357602279
209.1480111987133
178.6009814877432
208.2247465982696
207.831280677974
207.5601047234603
207.5172867888642
207.4726928733621
176.9590938607595
176.6525398996591
207.1714932623386
207.261677500965
207.4424149827864
207.6912826809567
207.9710834226914
208.1044259887606
177.7124649031992
177.5082359634513
177.3463752084119
177.3918683266398
177.6186754117086
210.2250348836544
211.2037853748867
212.5449677705239
180.926630220158
215.6331461144943
217.2135354694831
218.8018473419354
220.4494198084478
187.4443765474384
223.6306550031011
225.4273730210184
227.400690227619
193.525338768892
231.6355204151877
233.865078730896
236.0597572118514
238.2218579170907
202.535614945042
241.9864955950343
243.4702564225911
244.4831891392215
205.6456654257009
206.3926524557941
247.903495177553
249.8286544746334
251.9750772708909
254.2031376046179
256.4767966074792
258.8109421486116
261.2052849814702
263.7458936778923
266.1948058921204
268.3169149647601
270.0258016487846
226.758867436911
271.7947576956205
228.4527971871558
230.5160677241086
279.003078317949
281.8896213628485
238.0978699557621
240.6278430790737
242.6792378558924
244.2646484131613
293.5366637065734
295.1528549737382
296.763674827365
298.3665928772559
300.0137975304782
301.8100972311846
303.8558935696203
306.1806590256378
257.1009540464341
312.2116052452472
315.9761727608552
319.9045542039007
269.44332071201
326.6161715246279
329.1784289536845
331.0754729970077
332.2701388995436
276.6359940010678
277.5496738858142
278.6842939825051
337.6542629842826
340.0263751490602
343.2615348131302
346.640624010284
349.8529113820147
352.9482760285516
296.8420127170153
359.5577586138638
363.2607973244976
366.9783388005044
370.3736548830447
373.1875899422281
375.408045247755
313.2844364942257
315.8439672314086
384.127598408933
387.4579083859577
390.9139643302698
328.5776385339618
399.0360816018056
404.6160472061247
410.6784893304171
416.6136462991615
422.2853716149785
427.7411407480357
433.0117067334519
437.9517684963011
442.5912775222346
446.656377915272
449.9546583338226
452.3797814489725
453.8124401126428
456.0758554415362
382.9697354227323
388.8324112006134
392.7613234463662
394.4860430111972
475.3131836060623
473.7314728658753
389.2285273897949
387.1925405657241
467.9518819044006
469.2906762709158
473.1973934313103
478.475583823919
484.3429496047684
490.2239692054089
496.5202334861171
504.2492808842641
424.5755128481945
435.4348181936607
442.4136759572677
446.3235718017135
448.269418615759
545.512817705219
547.8142606744511
552.1793112078918
557.8009266594141
563.7639195020353
569.1440011897504
471.5507266340294
583.8108488569286
594.2684371858392
606.6504495034036
508.9793976891884
521.8971033092255
532.4816193678611
539.8866208810759
545.442161772449
550.750849331214
680.9330950976042
689.4886640276167
696.6229302260035
702.096361256968
707.3406391357314
586.3117226509191
720.7879129951705
727.0738838942816
730.9712144457815
732.0875485201059
600.4561922725957
730.0063467353716
727.2137322856551
724.974292294578
725.9338818938727
730.9305228082536
739.5890857746484
751.4361887162555
763.7306944388534
775.944184810223
788.500524730256
802.4225657844354
817.9035286429447
834.9955897678969
852.3037864175824
868.5570301580158
881.7041102153709
892.9591997593717
733.2607304926195
743.3759065790965
935.1480439151218
955.8689967007591
976.9557889453972
995.6716816644993
1012.550344468846
836.0967359899405
1055.340924508869
1077.899395123296
1097.715894501689
904.5836636818589
918.3088897659409
928.5284374744301
1154.892095499471
1161.54584679567
1168.369163153968
943.8666663919007
948.2438630174601
1195.949040740935
1222.231626026357
1259.130554624278
1301.943221628201
1348.209183069229
1127.082185901009
1450.383134761073
1501.004674523648
1551.006882039726
1603.023302949884
1337.220099083682
1379.218240979627
1415.462311270326
1449.410197224277
1492.767807143048
1923.124513899589
2002.127296010888
2090.64676230152
1755.478771854259
1822.191764583717
1884.018643912561
1600.065811564546
2004.198966522549
2065.061911301568
2137.035996645472
1800.282270325088
2314.387593900921
2391.372808126852
2411.60153964072
2381.545048717476
2318.710770778611
1748.25278759244
1666.72360623589
1553.023583979387
1393.442770032062
1208.233206582586
1309.792346675169
1770.966207179237
1146.282955782307
291.7495279761459
3.188598630963881
2.506747261186289
2.680373614948929
2.720918807377746
2.804576935253803
2.895891174269356
3.005656779169098
3.128025551162939
3.045366879708161
2.731857864719514
2.257997822488659
3.136561844808309
3.18198068221627
3.211647675048804
2.183639135247159
0.3663659173378084
1.853670137888625
0.3310908225718195
1.902175251903729
0.2967267137368892
0.2444096575322642
1.935741155332753
0.2291462418697393
1.916768105770695
0.2119245674304471
1.879664412626031
1.904784613649036
0.1797673650104482
1.91914318710574
0.1550968245418106
1.891048616942863
0.1366097103414664
1.873638816543852
0.1195718260016461
1.857753485940138
0.1051640461401211
0.1289139582082565
1.843396384436857
0.1194224310227627
1.831052745886396
0.1106468241184736