/*--------------------------------*- C++ -*----------------------------------*\
| =========                 |                                                 |
| \\      /  F ield         | OpenFOAM: The Open Source CFD Toolbox           |
|  \\    /   O peration     | Version:  v1912                                 |
|   \\  /    A nd           | Website:  www.openfoam.com                      |
|    \\/     M anipulation  |                                                 |
\*---------------------------------------------------------------------------*/
FoamFile
{
    version     2.0;
    format      ascii;
    class       volScalarField;
    location    "2000";
    object      Ma;
}
// * * * * * * * * * * * * * * * * * * * * * * * * * * * * * * * * * * * * * //

dimensions      [0 0 0 0 0 0 0];


internalField   nonuniform List<scalar> 
104311
(
1.217025806494291
1.4417333010006
1.595810195331328
0.03381131116236533
0.03992507605161082
0.05349831311031508
0.02906990237193675
0.03678720541341962
0.02740900481154602
0.02664590903377063
0.02234902952731272
0.02595211118248426
1.812344446953894
0.01506716648501501
1.799310942476755
0.01191494355993509
0.002165707917885651
0.1822804392933544
0.003462132914666289
0.00836347980811634
0.005227535121982534
0.005320524420527582
0.004110170685953923
0.004862861373614471
0.001106565938413566
0.0007166649843302218
0.002478852513755692
0.003793039504483346
0.007196583794252582
0.008824745954472146
0.004807270781437877
0.009871449617810404
0.01039632058148529
0.005577607373705142
0.01063283972532695
0.006171180805317646
0.01071663496831124
0.006712271260090399
0.01058590054160285
0.007307034792841986
0.01035045924060637
0.007916996505551825
0.008484729262733578
0.009040991046963187
0.008281572781075502
0.007858520011878277
0.009765142623498441
0.007400848502829644
0.01048960675750747
0.01089609533739839
0.01110938846048824
0.01116191580368885
0.004991106811741587
0.0111408571836098
0.004755863805843958
0.01127319813387175
0.004571181143247816
0.004391513622926743
0.01156163539223697
0.01179643368343199
0.004008433139190607
0.003799591650681225
0.01201239169339827
0.003598681838895945
0.0122303171730119
0.003463671575434884
0.0124715523223671
0.00339533617221229
0.01276502365706049
0.4416821608156457
0.01308143207996266
0.003366610952867415
0.01333020547872757
0.003358667031760704
0.003338426192364791
0.01343322991859488
0.0134971979007722
0.01360237447542064
0.003049015104818737
0.01367482860733431
0.002954626143742837
0.0137297251595329
0.002837475846192777
0.01377310175200703
0.01379497736019583
0.002688923115137768
0.002639279063460767
0.01381031269959365
0.002569689426519234
0.01386928539268916
0.002507683513893613
0.01397335445321947
0.002470948951938294
0.01409297122243206
0.01424894804088534
0.01440642779564492
0.01453562050512488
0.002394579125839312
0.01463560838522473
0.002359302106753438
0.002311291137815122
0.01470578687431345
0.002273447477786942
0.0147425005020945
0.002254372329963967
0.01475040346646722
0.002245969890912726
0.01475012499101812
0.002258950333490714
0.01473854529294995
0.002267030535501523
0.01474379904265645
0.002311804938091273
0.01477403395582407
0.002342033499426156
0.01480348804496625
0.0023614095259684
0.01482078517623128
0.00239251679344592
0.01484901279905996
0.002424415937715204
0.01489498559016428
0.00244530241373693
0.01495170429193516
0.002423647166622877
0.01502231030099437
0.002392204984799487
0.01509744210168417
0.002334570502897798
0.01521372069957702
0.002294800368785582
0.01535115236617258
0.01546047194655467
0.002235670832327289
0.002199080776042512
0.01552753130803454
0.002147310256458494
0.01558601643629282
0.002095364880135777
0.01566225219911401
0.002037763490007263
0.01572643664996136
0.001986196966579516
0.0157591304070389
0.01578115935758205
0.001883576338287778
0.0157906086435434
0.001827530477082825
0.0157915469864122
0.01579183131538148
0.001660399823654182
0.01579718614248264
0.001630332916284141
0.01572397948912326
0.001611354913606455
0.01555743690760098
0.01547293482584209
0.001597228535778195
0.01572228329017067
0.001594287163538895
0.01592609591989744
0.001575570717582041
0.01604311619465725
0.001539065281229065
0.001497951666151412
0.01612160797560709
0.001460097953041734
0.01616416419837996
0.001423595683944626
0.01619282927982639
0.01620335716447092
0.01619884540568075
0.01621089618405182
0.01625821274940239
0.001194881367109836
0.01632466242874839
0.001154331724732903
0.01635773368197735
0.00113053456454275
0.01636772559745963
0.00112925206176717
0.01634402858127827
0.001132086278163038
0.01631308758086155
0.001123365670079601
0.01630605177928966
0.001108222189984694
0.01630119353976768
0.001074080740261292
0.01628653754833324
0.0162637766253548
0.01624332879987578
0.001009088576918266
0.0009882897352631989
0.01624755652745277
0.01627506690052287
0.01632687856957553
0.01641324354561758
0.01650765696843808
0.0007517775620137323
0.01656664548871113
0.0007055437959102579
0.01659625923931194
0.0006527143951462271
0.01663294567095327
0.000601457310491788
0.01667751981226093
0.0005635367416959456
0.01676323303774247
0.0005263608351314554
0.0168673873495815
0.0004894972456813035
0.01694255908342557
0.0004568437738965054
0.01698599328236666
0.0004263728926597483
0.01702162067701838
0.0003977475361759517
0.017045923629638
0.0003689151447764867
0.01703965358577551
0.0003343866300371421
0.01703081029846088
0.0002993811387059327
0.01702999328540846
0.0002743779923963511
0.01705709946973762
0.01709471001451762
0.0002354165609065777
0.01711220258589128
0.0001975078347019531
0.01710484383460678
0.0001370330814234283
0.01706979584064108
0.04149393700454697
0.01704844218829771
0.01703959274995851
3.333040022725103e-05
0.01699863845851308
3.526023874540828e-05
0.05294769929592665
0.01691304325306303
7.740254632024512e-05
0.01683831653652039
0.0001225853533095643
0.01681206156225583
0.000158057367505022
0.01673468652233758
0.0001909862771220923
0.01653736352428658
0.01642348388589017
0.0002262466535468753
0.01664283873610378
0.0002562483818689323
0.01683127827280643
0.0002907550039089695
0.01687303054033653
0.000316734873552867
0.01674620896775956
0.0003378208747418141
0.01667829800049598
0.0003858820912227037
0.01692601522351689
0.01718202277958581
0.01733822118119193
0.04503386219286114
0.01741114799356878
0.01744229603810203
0.0004909293460346211
0.0004957506616254922
0.01744880412349028
0.01745087589037493
0.0005216022619524544
0.01743990198192787
0.0005701725976750485
0.01742661624104854
0.01739729041123979
0.0006312882660096844
0.01737498395678806
0.0006674739006554646
0.01738214090961566
0.0007079495521330688
0.01739370101444332
0.01742208604441471
0.0007659764288962399
0.01748338220464445
0.0008090586028337108
0.0175519734157913
0.0552230089927957
0.0008676369400996658
0.01758875760826413
0.0009229181989222879
0.01758111537215359
0.0009580631486010116
0.01768223273759992
0.0009761477447179967
0.01781166511868828
0.01793143272890832
0.0009872844772738218
0.01801725201541764
0.001000569003747839
0.01805473139022395
0.001011964621912377
0.01805303474736642
0.001018751922317307
0.01802730084383505
0.001042424744022274
0.01797875391988505
0.001070862923238739
0.01790709034651606
0.001101451318407128
0.01782366023007371
0.001151551384537147
0.01775934049331043
0.01774003202704042
0.01775894259523541
0.01781037428005587
0.01786214030870691
0.001280463598612885
0.01790519308440314
0.001294164805968121
0.01794752757391687
0.00134795298121661
0.01798569077600855
0.001433254388708922
0.01802373791836322
0.01804149341782317
0.001505509936024089
0.01803824798503243
0.001557081294497417
0.01802199555973096
0.001595774780046176
0.01800576995275261
0.001622201054163408
0.01800494375242804
0.001639821514744772
0.01800959953629805
0.001654453097362464
0.01802243342933973
0.00167034155464488
0.01805661160661052
0.0181193618332588
0.01819176412516204
0.01825931299586896
0.001671159607013326
0.01833449128262182
0.001686103934315745
0.01841260941064914
0.001723356833844013
0.01847007914186855
0.01851894543762515
0.00177124238169667
0.01854563284642025
0.001814635316336702
0.01854688420720739
0.001849895006331964
0.01855649195806651
0.00187648743900508
0.01855255594604275
0.00190505546376403
0.01851669089656176
0.01846463646077136
0.7134199044144431
0.01839726427349361
0.001920992295319291
0.01829964680504598
0.001931081571747822
0.01820338541977285
0.001949438900905604
0.01813816392537592
0.01812027947085808
0.01814497872381652
0.001975513935703853
0.01823190601774545
0.001998048017625114
0.01834225451745769
0.002023234191552773
0.01842192663986468
0.00205505015622681
0.01849979018279346
0.01858930197215412
0.01866357401399141
0.002074892074066646
0.01869961307431242
0.002078365351369758
0.0186849873453682
0.7205871273820743
0.002085636741987774
0.7221988570596746
0.0185971645838176
0.01842700794924148
0.01824963240514795
0.01810206018016513
0.01799165924076294
0.01786937811324268
0.01772298911204235
0.01758861304305458
0.002298163022692046
0.01753106148527327
0.002280864725450979
0.01754143799424396
0.002281228483439572
0.01758596569732485
0.01763570482044621
0.002298024461016317
0.0176837384862167
0.002320842027904884
0.01771123162103732
0.002349409971321472
0.01771431865916478
0.01771597514615972
0.05422621323447326
0.01771686241054501
0.01771871134421212
0.002376452721979678
0.01768134443721949
0.002382065185220422
0.01759757568224399
0.01750570568049887
0.00239399478365865
0.01740545219860748
0.002421543172429607
0.01732493344440846
0.002455371635649811
0.01729490188920732
0.01730256328118389
0.01731900343592884
0.002483174269522004
0.01736289232205536
0.002507578649831771
0.01739918055153875
0.01741077441417944
0.002538894269701494
0.01740782395093047
0.00257749203002741
0.01739076807576394
0.002617855193814054
0.01738533584209349
0.01739377764893967
0.002651505963022595
0.01740913815031824
0.00268240606901015
0.017387641066766
0.002711788984581067
0.01731719643338904
0.01725426428405062
0.00273590084824262
0.01719726012477027
0.002758568557707774
0.01712781835741689
0.002776146743483916
0.01700491085218849
0.01691315271943355
0.002796123020790081
0.01686377261589779
0.01679182952477041
0.002833887266330857
0.01667714737154188
0.01657677176491395
0.002864347019792694
0.01650550117695523
0.002883617162391096
0.01644179233532726
0.01632807831074271
0.00290735136319555
0.01622994184971227
0.01614900015891852
0.0160552028433008
0.01599193376828594
0.002910420934488742
0.01589652312978331
0.002895740581787305
0.01582377417681561
0.002901454076628962
0.01576402449953219
0.01571150822885669
0.002929177299487527
0.01564958153920285
0.01560220805400974
0.01553754179877299
0.00293145265574211
0.01547088605789476
0.002937354055216133
0.01537693332284177
0.002948603332329318
0.04833842993467226
0.01553224570740308
0.01511195655382496
0.002972706511704388
0.01505400095468852
0.003012118289082746
0.01502469086970091
0.01500006351855668
0.01495103376530556
0.01487462288418947
0.00305468019625422
0.01478815905373031
0.01471809735796992
0.003063806320346787
0.01464665372960405
0.01456948458010375
0.01450611077550175
0.01445650410873722
0.01441250354615789
0.003136425616734178
0.01437505360129262
0.003134186818089087
0.01435647504957942
0.01436781118322125
0.003138145146358574
0.01442647754916403
0.003149595959135846
0.0144809487623752
0.003178321771775214
0.01450876415987358
0.01452541898200736
0.01453666099848785
0.01453874839220136
0.0145059628925251
0.01445196261904966
0.01441209579132346
0.01439303447644711
0.01435688499512354
0.003308249073444501
0.01429432576759005
0.003267876137833932
0.01421432301328058
0.003256839399009313
0.0141076630265364
0.01398675262274381
0.0138844519067496
0.01383196418048335
0.01381638551046464
0.01380552713146633
0.01378687229316933
0.01377142803161036
0.01375508925223273
0.01375206843430499
0.003347610981460644
0.01375680056371544
0.003289170035899018
0.01375970649855012
0.003263361434143157
0.01374500726806928
0.01371817692488857
0.003256578815024635
0.01369187755619676
0.0136656318390114
0.01364402141642355
0.05627336632701226
0.01362765287824672
0.01361112708204437
0.003197246668636065
0.01359969184407783
0.5605964381716821
0.003159174703261379
0.5603250040039246
0.0135620771071906
0.003143327274057158
0.01351436327648286
0.01346722791482747
0.003140467232454855
0.01343643841063344
0.003141687221228381
0.01344909375600929
0.003138635439460252
0.01350773504683577
0.003127804267431109
0.01353586989864621
0.01352439250481607
0.003116785253799304
0.04201119458858143
0.01355106898478403
0.01344298848301797
0.01345186450159963
0.002997443045706045
0.01348379400225717
0.00292187854710302
0.01348883531984651
0.01344760341614962
0.002871210681044861
0.01336453716877868
0.002851053380837524
0.05312819221870904
0.01322272395159938
0.04056649139644402
0.01307314924931955
0.03734546155106035
0.01295366418123205
0.01281581073604262
0.03248983742671343
0.01266403702747344
0.02636613725108495
0.02937400893320065
0.01250885669030789
0.46225593190704
0.01241781277824718
0.008384819818700061
0.01315446258653466
0.0122993908007657
0.5042849360435164
0.002901655136170958
0.00915559533237347
0.0412644753610853
0.01210845726047963
0.004258695449576783
0.01197492924832501
0.004253194745346146
0.006504625799793286
0.06616416054507439
0.01166167731946241
0.0105882714153419
0.05439777102272979
0.01139217439636378
0.01811396969777235
0.01244942185184253
0.002501332223559194
0.007829522515663009
0.01778589479993534
0.08257367442109576
0.3524535864547501
0.2560878360354125
0.4229069778735298
0.1318818440405257
0.1556957173517313
0.2015427858811437
0.1963492784564225
0.192088454107128
0.1755955908040413
0.1364918067443015
0.05429085470911559
0.1917504317968049
0.5144172786838264
0.7778698193226
1.01703321713964
1.545984429827088
1.786731292154501
1.799589137196784
1.762515137342739
0.9173630599749969
0.9736474369881168
0.8601463601611012
0.4491040767621428
0.4743921359129408
0.4794815587442758
0.5170860847493122
0.5129268094740494
0.5211454118147552
0.5250844294762419
0.5412722042658347
0.555990865739981
0.5587197583962573
0.5614388071753953
0.5755136246301862
0.5908718943666672
0.5955312234992665
0.5933564571722457
0.6083252315738354
0.6174457362984584
0.6193955621149823
0.6303196925965896
0.639917471398861
0.6465274058451108
0.6484512169347846
0.6503101557373467
0.6628196275004079
0.6645098282736563
0.666036337496422
0.6726477024727292
0.6717820719100747
0.6751652813023139
0.6754916894871287
0.6757408257146276
0.6782454943022492
0.6851203990449231
0.6880701589883935
0.689111985524394
0.6938409337690912
0.6953571490831393
0.7033150660624004
0.7029355845610813
0.703499444423996
0.7036318926342503
0.7058672742408115
0.7062896427805504
0.706427241860298
0.7064769356914348
0.7065742375082505
0.7066092244877427
0.7065639920120526
0.7108034230361182
0.7134502307065645
0.7131964110405059
0.7128697952343778
0.7125973919319164
0.7135262490108771
0.7147129869847817
0.7221916285577188
0.7123599913411536
0.7144852777375376
0.7057466188666387
0.7055172004673397
0.7030320638469001
0.7018145812280905
0.700004274703779
0.6981296536103032
0.6961452022797542
0.6854085851760036
0.6868427106048987
0.6844041835594123
0.6832897473948384
0.6779859252686047
0.6701884354830497
0.660961363499067
0.6588626613044594
0.6521088293241518
0.6501684591384743
0.6450037961797763
0.6451989787819193
0.6425456790587285
0.6354061779365389
0.6333915115991918
0.6193765606712159
0.6169189845409544
0.6145365649432096
0.6122020333197981
0.6101328451930182
0.6083455610745371
0.6067585036136411
0.6028795534005459
0.6019381707931175
0.6006264073928194
0.5987970680705522
0.5829994780360896
0.5847558524362484
0.5815261038024183
0.5763582315205188
0.5635396035538308
0.5604731076932253
0.5602216852620052
0.552821124847924
0.03761252577025274
0.02726300108454376
0.01843232326932718
0.05462234902260934
0.05568676860604529
0.05653383418294847
0.05727770675440134
0.05789528764098859
0.0583352931841826
0.05861318149059618
0.05874483873009824
0.05872812914156086
0.0585599020340688
0.05554621127440593
0.0547527582879549
0.04896818499135522
0.04809616827635566
0.04759421651747194
0.04720772569287932
0.04693945925386918
0.0468091461866984
0.04641960422800998
0.04630136198669647
0.04628575714143116
0.04631373729609362
0.04637889885183469
0.04672756473865217
0.04692165202882461
0.04719140302974194
0.04821053767291349
0.04857197199164176
0.04975335310187357
0.04991434239749478
0.05092490883415623
0.05122333664122572
0.05304687056830237
0.05505847691291481
0.05403273736022953
0.05175677672547414
0.0515636202572845
0.05148385485254199
0.05149364482031075
0.05158770232349048
0.05223244949817732
0.05218712333920371
0.05215162362921069
0.05211970527714076
0.05182249851648463
0.05176085893655859
0.04906819646494059
0.0492978748802889
0.0508471178338613
0.05120561336114671
0.05148531062628895
0.05168687518692488
0.04904499301241316
0.04748172320575648
0.04481899486795014
0.04484691961675451
0.04541975507973837
0.04125939434116355
0.04316793602209234
0.03552782522737204
0.033763888512779
0.03301655985401571
0.03294941979951356
0.03544010329114493
0.0367850310550125
0.03395091795199831
0.03197017138617881
0.03109903982190484
0.031130113463748
0.03189722421423537
0.03660617314966912
0.03172436120911461
0.03103686223602769
0.03072568746208852
0.03095892076998412
0.03170758020707042
0.03291606012239633
0.05130046506335504
0.06132672893971824
0.0708503609699131
0.07154470241711125
0.08385514572308125
0.09160657059974377
0.09295960517134552
0.09442234776464435
0.09755060235032134
0.09731630323963707
0.1040585929885481
0.1106731555171599
0.1113887527051728
0.1116670825619225
0.1115273408680065
0.1114136496973092
0.1210602378151291
0.1245570834405969
0.1279656707360809
0.1787302024964181
0.1358197624546044
0.1403254552021803
0.1461896848190439
0.2143457068040814
0.1666525241749835
0.1802135890678992
0.1937661096729993
0.2021869095152171
0.2035326099761146
0.2379644195505727
0.2249549127264891
0.2144906145532901
0.1983616110824321
0.1653135053075916
0.1073481451447151
0.06315777958413715
0.08074314689940616
0.3979943907502007
0.7823383861971429
1.352024011071945
1.789599152537173
1.813942701000738
1.812743919546571
1.802127222265141
1.78616983386141
1.756152516581723
1.713711255255577
1.651712801119515
1.548137830539409
1.374595195684469
1.170653179778012
0.9984522369381876
0.952765564780778
0.6781927669800497
0.5390965123140868
0.4258308846200956
0.3331859066285455
0.2514181588181004
0.1167956079338221
0.06678808533234067
0.0499012094696789
0.0724871488097333
0.1061831471215232
0.139440527377374
0.1702217740891267
0.1982629738264723
0.2236260791372157
0.2465138613115699
0.2671600582812858
0.2859219253766013
0.3034626308050578
0.3203039368416767
0.3370483840062768
0.3523071106401995
0.3655948582609903
0.3769326695763541
0.3864047011829
0.3944447951911579
0.4026224663483246
0.4106857083337905
0.4186978588950463
0.4265447262841922
0.4343039572206784
0.4437985711162623
0.4512199482011366
0.4563227953616891
0.463041598996275
0.469077983931018
0.4768273517448851
0.4818952359641776
0.4841295553184847
0.4883542766733776
0.4924821071712933
0.4964235537792449
0.5003598726546834
0.5044735032943081
0.5087234648142295
0.5152611453682217
0.5194108346598701
0.5234932976854753
0.5275590034455393
0.5288605951492642
0.5323376404416219
0.5355271095159275
0.538629108327089
0.5434591818720758
0.5438608531332627
0.5462246602445527
0.5485876622448586
0.5509654192661474
0.5535486976311695
0.5578829518621684
0.5605935139243549
0.5633012600131778
0.5642236113790977
0.5670373292945465
0.5698490698172164
0.5728050276783508
0.5767329766601422
0.5783502365246936
0.5809671916014596
0.5835352114717737
0.5860507722145698
0.5886409370080915
0.5916149231738651
0.5941936490710013
0.5965076839299084
0.6005707379462797
0.5982063019339966
0.6028141081479546
0.6046591592103389
0.6067145125996442
0.6033286682241853
0.6119283629500331
0.6102949296287331
0.6137746626950321
0.6157202120023019
0.6104990471836295
0.6119487080253225
0.6212321961085897
0.6231391141034354
0.6249193535427614
0.6267370902681452
0.6287325859867865
0.6186338574575615
0.6333534306561346
0.6321400432885094
0.6345685483395007
0.6355606824249632
0.6365478186831135
0.6376140263449254
0.6387937372172263
0.6214519040630107
0.6414221989980285
0.6430217749325622
0.6448215826164483
0.6251647842902757
0.6263601179803712
0.6276308221589545
0.6521859320095148
0.6540427665438249
0.6558582745878212
0.6576351787882982
0.6594056930375802
0.6611857846453373
0.6365004623303713
0.6376346059734486
0.6386975896461933
0.6674802074933012
0.6687480402432289
0.6698815755808083
0.6708807271918876
0.6421183193087451
0.642452914969957
0.673398955007124
0.6740637240870307
0.6745879695608973
0.6749621930269749
0.6432011612113233
0.6433040485083479
0.6433533408721671
0.6760536832878401
0.6764293074815859
0.676979442481644
0.6775926051459842
0.6439749666561165
0.679088525941184
0.6799538772875678
0.6809943525113331
0.6820199902880834
0.6831088761771912
0.6841873818405658
0.6492954193312187
0.6860455626642658
0.6867389777258353
0.6872991648915495
0.6877736038699579
0.6506307796727602
0.6887336785717978
0.6884470856696293
0.6505008916040762
0.6896445130433918
0.6903136865295093
0.6912757082960314
0.6529752133970602
0.6541871022330983
0.6925116507438369
0.6556139554536612
0.6968178618708936
0.6982663940333442
0.69958090366879
0.7007397266586957
0.7023740543197827
0.7016775615043523
0.6618049141272602
0.6617638996869852
0.6616454058542525
0.661508410909654
0.7037298109143091
0.7038071546306541
0.7039293776016947
0.7041762602174202
0.7045112920656901
0.7048446825887802
0.7052105441387282
0.7056512941709231
0.662241325839028
0.6624921715165378
0.6625713243653881
0.6625704004881781
0.6625893855745252
0.6625873874361071
0.6625002052062997
0.7066658914996604
0.7067838835179631
0.7069162636266769
0.7072395413006674
0.7076686910039209
0.708261851940611
0.7090350302398664
0.7100666954383369
0.6660341139259448
0.7117130401732549
0.7124582245421847
0.7131163935304289
0.6683219737326925
0.713611724042117
0.6680346281558541
0.6676814041996797
0.6674012320873816
0.7124153104268821
0.7124270030229306
0.7127558167780808
0.6683963194810237
0.6696535522612543
0.7161347923407028
0.7176843066274162
0.7191648483151564
0.6772381787132991
0.6778824164786982
0.7215212603249043
0.6778833173055473
0.7214646241328088
0.7201632816252705
0.7185110628646995
0.6720143087687529
0.6699180886635061
0.7166005046951537
0.6676887577762999
0.7104648058172347
0.7088139020307976
0.7075036134838031
0.7067536386075368
0.7063118191380374
0.6617097817423863
0.6616385014423518
0.7051973920057786
0.7047859233645999
0.7041919299408267
0.659888171895666
0.6587893528004877
0.6572023487827392
0.6555330757980333
0.6537558466773369
0.6939608265639353
0.6916804214468059
0.6897621235664134
0.688434226589968
0.6447383935050051
0.6438872643655387
0.6430168503668168
0.6422682968033718
0.6820613077407061
0.6807211814721028
0.6797518992096026
0.6385005354458226
0.6743966592275067
0.6766314430483344
0.6727746618119578
0.6316235691286107
0.6681331968695989
0.6655305450040958
0.6635128769718996
0.6237026829236657
0.6218621862295907
0.6563662514366914
0.6542900753732271
0.6157879588571173
0.6139895371575752
0.6470742569163825
0.6483749539568849
0.645754756108627
0.6094105361249159
0.608663635976933
0.6447989223703245
0.6446669376344135
0.6440791213419901
0.6431395238704223
0.6069521287658536
0.6412692812970141
0.6400820528815868
0.6385986185835203
0.636724790482732
0.6014348816346077
0.5997528628920623
0.6317389921451181
0.6298760666454141
0.6281501232434997
0.6263201135096637
0.6242505424740153
0.5910570432483035
0.5890749492797168
0.6216112740794224
0.5870034561856555
0.5848465942831823
0.5827590487617358
0.5809514949162292
0.5794656129784821
0.5782313087912411
0.6054737620873774
0.6047053197370932
0.6042919020190145
0.6039268923002807
0.603461113661599
0.5759032203758916
0.5752176732307558
0.5741528438111894
0.5725581564399218
0.5965659016589266
0.5940380066977753
0.5914399300135331
0.5889492678300393
0.5602938347336975
0.5588250198147896
0.5869545800191766
0.5572764415803519
0.5558881709427007
0.5802680088761312
0.5792118389160327
0.5782349979988262
0.5772160519635837
0.550912127821779
0.5750494507769208
0.5736429367424991
0.5720130760367819
0.5702507647464382
0.5685050893173337
0.5651836493319223
0.566909676676765
0.5397253758838226
0.5612649488788137
0.5623028907972329
0.5372988938081982
0.5373674890888588
0.5601896221457262
0.5377709970730598
0.53813928866542
0.5604000509717688
0.5601850879986726
0.559335219974903
0.5580832074291873
0.5568017917699573
0.5553568731654024
0.533050514795656
0.5506200629573923
0.5481915047687046
0.5460889384167908
0.5440466371574438
0.5422911492038478
0.5409304506435665
0.5396370849016292
0.5378941224495076
0.5357398921847851
0.53306865944798
0.5297914805940835
0.5258634896447472
0.5206263303634007
0.4975560929101726
0.4907084546058276
0.5001860899726952
0.4977611775257899
0.1579690455290479
0.04261749961223526
0.006633337347598503
0.01953284005882214
0.02182999950391049
0.03626484335409635
0.04292403611869675
0.04777098626656981
0.03121577816298745
0.0334157135203595
0.03516527845384132
0.03649296735663416
0.03746933104904478
0.03807498480048423
0.03847507902048912
0.03865388800436623
0.03876241886700323
0.03891289550772713
0.03900247500420263
0.05827167992084201
0.05790487246792753
0.05732757268405219
0.05673993154000539
0.03964236057620886
0.03976388775261359
0.03993899709368604
0.05367547144996424
0.05236359557324652
0.05102968805986502
0.04986114511649364
0.03962021809819945
0.03881942064637366
0.03773430470628367
0.03630633757389868
0.03467674502991286
0.03324278740657961
0.04672144949558062
0.04657899849423604
0.04646473280953865
0.02999379371510598
0.02903768271520125
0.02819110250431428
0.02752710559272423
0.02713335211441544
0.04645497314597625
0.04650512033112864
0.04656607848109253
0.0465813726698119
0.04658004442178718
0.02792196747079803
0.02813872144597624
0.02824990214144853
0.04750701926131812
0.04782651101970811
0.02821979735754474
0.02822207713604227
0.04888392979564367
0.04911957093909133
0.04936870412250258
0.04953103709064953
0.04958770484300509
0.0291059549204618
0.02927720740188232
0.05010057252016589
0.0503182838101189
0.05057599057159445
0.03018254575724452
0.03045173077436332
0.05153792373199065
0.05186562551262823
0.05222338790665448
0.05260200059796816
0.03235133153333458
0.05341923440804632
0.05375777267914691
0.05407888025848144
0.05438782966785344
0.05465716730674057
0.05486636220085424
0.05504228463595738
0.05514882020196427
0.05519615206107725
0.05520404747362435
0.05516162277577921
0.0550832162478742
0.03711548136650551
0.05496837780532454
0.05484910561970169
0.05472855163977973
0.05456555234379985
0.05436650500140031
0.0392135198257037
0.03952129927012732
0.05379936905742867
0.05352580831020688
0.05322732931866156
0.05289792602835454
0.0524948522254315
0.05205269237568008
0.0441609040458284
0.04447749615690932
0.04433578841971232
0.04345916746778088
0.04258237623518431
0.05178788460032596
0.051994250811375
0.0521124450470104
0.03997796568331522
0.05224598252993728
0.0522247733314195
0.05221168472153576
0.05217617378519798
0.03849234690551342
0.05213941249444883
0.05210589929350105
0.05210235823394752
0.03816460819370858
0.05213297095177104
0.05210989729934238
0.05212068568100745
0.05211611154424907
0.03848166988545228
0.05201704900839619
0.05189200386302178
0.05181893254506825
0.03881865902851015
0.03863534292187901
0.05172257225978109
0.05168234825800423
0.05158502328727135
0.05143311834317481
0.05125327702683682
0.05105839485468098
0.05081362981794329
0.0504440747684075
0.04994048392123943
0.04939283329090312
0.04900417598233321
0.04160108279957233
0.04885423991531211
0.04169021176459663
0.04146487881430063
0.04970509495309337
0.05028928302522197
0.03926267255610383
0.03871876986916532
0.03822330338460796
0.03771597101229769
0.0518000148946496
0.05180316732571822
0.05167735430369863
0.05143439822774899
0.05111404934551149
0.05069554393117433
0.05014314723763508
0.04952784114057922
0.03560404509004873
0.0485637723283276
0.04812464684981009
0.04776180535187916
0.0365892587486413
0.04709907213224334
0.04665840108299272
0.04607845702886586
0.04544137205336152
0.0398324960677931
0.03981992031691935
0.03905436907924299
0.04512546495598455
0.04557960854999816
0.04586997398669448
0.04587370781990983
0.04574794685431697
0.0455624230013531
0.03128561725392575
0.04511255881616633
0.04469834559171248
0.04417782032908869
0.04350472670673512
0.04271563612328197
0.04193082277557598
0.03267855927494535
0.03297515554536906
0.04131578306527114
0.04165481158111066
0.0422634559800569
0.02991997817136455
0.04393807055537684
0.04463860062975839
0.04514715946831918
0.04547899606140625
0.04565151101325697
0.04568526513107948
0.04559683510410347
0.04539100252629837
0.04504620414311562
0.04447517112215314
0.0436302637221604
0.04234239285553006
0.04037617422104717
0.03778332794452061
0.03820692634970717
0.04164618431340747
0.04380710111084294
0.04463493843442175
0.03328637049946499
0.03401471170187181
0.04277401818557874
0.04029398231934572
0.03806870331376753
0.03902724550371132
0.0395678511769044
0.03969871673733671
0.03943135708618021
0.03868687019895243
0.03738007887657357
0.03571400998836519
0.03849904691098219
0.04219436647935143
0.04449458675665782
0.04518887405412172
0.04490449600664367
0.03327833727660184
0.03506959841916477
0.03639363324713545
0.03700562660553458
0.03719412015123669
0.03694279724063512
0.03910521281584992
0.03536363102616575
0.03384972161295906
0.0324930632707847
0.04782181147718486
0.05052319670419364
0.0527100151646543
0.05384672251184058
0.05423915076344238
0.0539013376869977
0.03510709840111262
0.03827240311372818
0.04231634401125019
0.04619595089277748
0.04899622208131182
0.05061014230738083
0.05307902253148055
0.05497542607717149
0.0570662719115755
0.05914590709456985
0.05435356431843073
0.06292087487110201
0.06428986480072191
0.06541227006590203
0.06643778652067264
0.06745548053315747
0.06831132279286876