/*--------------------------------*- C++ -*----------------------------------*\
| =========                 |                                                 |
| \\      /  F ield         | OpenFOAM: The Open Source CFD Toolbox           |
|  \\    /   O peration     | Version:  v1912                                 |
|   \\  /    A nd           | Website:  www.openfoam.com                      |
|    \\/     M anipulation  |                                                 |
\*---------------------------------------------------------------------------*/
FoamFile
{
    version     2.0;
    format      ascii;
    class       volScalarField;
    location    "2000";
    object      nut;
}
// * * * * * * * * * * * * * * * * * * * * * * * * * * * * * * * * * * * * * //

dimensions      [0 2 -1 0 0 0 0];


internalField   nonuniform List<scalar> 
104311
(
5.819518115520009e-05
5.980231423621803e-05
7.031316348156851e-05
3.816936697190198e-09
4.609098505535897e-09
1.124960163068653e-08
8.679739733156717e-10
6.835629261390961e-09
7.5677820765412e-10
7.124488434611528e-10
2.838280856734114e-09
6.729462320237168e-10
0.000108264458283811
1.352583693190573e-09
9.494388748873132e-05
8.596210444369142e-10
1.287199883379853e-11
4.665879784030847e-05
5.972308173748476e-11
4.348766027573885e-10
9.561250248394303e-11
8.180542662613817e-11
1.081054524998617e-10
6.723235685127567e-11
7.957046165189586e-12
3.343641595564425e-12
3.956005229963363e-11
9.221388117036849e-11
1.589037821681657e-10
2.41340946833303e-10
1.474378062475956e-10
3.062531779469929e-10
3.451345522679467e-10
1.973798668232878e-10
3.670840861384624e-10
2.403310373172788e-10
3.842631481808947e-10
2.828890189441315e-10
3.802265278243357e-10
3.34230447711775e-10
3.681356297419473e-10
3.914956983705891e-10
4.486651323538566e-10
5.077984414347629e-10
2.478066042163489e-10
2.247568849173559e-10
5.89175426870598e-10
2.008783171059081e-10
6.746673961513061e-10
7.240444291639666e-10
7.497404570244854e-10
7.546184113284105e-10
9.566598498557483e-11
7.509783432604029e-10
8.739295087352297e-11
7.679331804664684e-10
8.114802396348571e-11
7.524687210029737e-11
8.044023727340645e-10
8.339954875885838e-10
6.323874028630867e-11
5.705395781387142e-11
8.614589987837592e-10
5.137023069848557e-11
8.898219187136085e-10
4.774392820357834e-11
9.22084489540695e-10
4.60183875981067e-11
9.62906147512191e-10
0.00028170169358579
1.007760572562733e-09
4.576773593246674e-11
1.042091234160809e-09
4.57604105117021e-11
4.542214504216177e-11
1.05465057912182e-09
1.061960151336299e-09
1.075971949348831e-09
3.863988936596496e-11
1.085169396704289e-09
3.645340147802654e-11
1.091688297117855e-09
3.377314621776708e-11
1.096122880909081e-09
1.096969955010752e-09
3.056199565715228e-11
2.954925808682168e-11
1.096821903011448e-09
2.809182297776169e-11
1.103549034029446e-09
2.679837167850098e-11
1.117104648709933e-09
2.603984705952366e-11
1.133001507508516e-09
1.155302535205418e-09
1.17830099533368e-09
1.196592889307716e-09
2.469458997994353e-11
1.21007657295977e-09
2.399393349149746e-11
2.305647657695941e-11
1.218932853168645e-09
2.232520186068183e-11
1.222654210532975e-09
2.19630497686486e-11
1.222087435228179e-09
2.181890212620851e-11
1.220427753136287e-09
2.209309396249365e-11
1.216449603721153e-09
2.226098250940504e-11
1.21569251994457e-09
2.309604226362524e-11
1.218984826995867e-09
2.371454710393211e-11
1.222265923797247e-09
2.414092044127906e-11
1.223364181430177e-09
2.482294149821227e-11
1.22604569795632e-09
2.555010486751049e-11
1.231224529744745e-09
2.606906886371506e-11
1.237953626019996e-09
2.581168646064963e-11
1.246924643272697e-09
2.524606446277771e-11
1.256647946386009e-09
2.413166421931979e-11
1.273699624161273e-09
2.337578148842753e-11
1.294792756163505e-09
1.31120440634607e-09
2.230450062502843e-11
2.164762892535056e-11
1.319958115943945e-09
2.070746647072117e-11
1.327717265932434e-09
1.977784734954104e-11
1.338612081723871e-09
1.876684531735577e-11
1.347531033722414e-09
1.789917368922774e-11
1.350945719394369e-09
1.352454365214101e-09
1.62543865516278e-11
1.351423505100129e-09
1.537151709462157e-11
1.349224127994254e-09
1.346808987059682e-09
1.275659924542619e-11
1.345874761434051e-09
1.230964332299685e-11
1.331513688034101e-09
1.202496065099456e-11
1.30085057543207e-09
1.28518684183074e-09
1.184885970882379e-11
1.32608379662266e-09
1.183600028603404e-11
1.359627760259421e-09
1.159059214846332e-11
1.378273738406252e-09
1.110425308577618e-11
1.056413208383585e-11
1.390278317193701e-09
1.009669834068778e-11
1.396056618413937e-09
9.680577503569009e-12
1.399266692137286e-09
1.398733471212992e-09
1.395661374670548e-09
1.395441320877377e-09
1.401635667981877e-09
6.975597394745832e-12
1.411368388579168e-09
6.558066002631441e-12
1.415557121781735e-09
6.320085284908732e-12
1.416053416614896e-09
6.307711904348814e-12
1.410419913737995e-09
6.331742861281865e-12
1.404133354877361e-09
6.239849333436938e-12
1.40186383856054e-09
6.088852137662126e-12
1.400170139952123e-09
5.770824772396021e-12
1.396807232051135e-09
1.391930902072821e-09
1.387236581445577e-09
5.231836695526676e-12
5.079218264265847e-12
1.386733820474403e-09
1.389576142986053e-09
1.396455414907184e-09
1.409022137083397e-09
1.423146802365567e-09
3.206957788570407e-12
1.430793613297675e-09
2.905348728329698e-12
1.433445252827921e-09
2.588837826610596e-12
1.4371579138403e-09
2.292628748869185e-12
1.442355474830036e-09
2.083780885258909e-12
1.454913193693348e-09
1.890877301213618e-12
1.470864285585595e-09
1.708697013519486e-12
1.481744286535768e-09
1.556446615434497e-12
1.48706271591123e-09
1.420674670317057e-12
1.490957711826571e-09
1.299860502453802e-12
1.492778896438663e-09
1.183773696582683e-12
1.489109953622655e-09
1.052433281738848e-12
1.484934879466951e-09
9.237435674445827e-13
1.482430204475904e-09
8.351010154930126e-13
1.48527836541134e-09
1.490238773364824e-09
7.215234356303627e-13
1.491748781756856e-09
6.268509772172134e-13
1.488740994182364e-09
4.984623900417654e-13
1.480879024258779e-09
0.03318750087068219
1.47558571795524e-09
1.472719309508461e-09
3.261043947872107e-13
1.464360763887298e-09
3.354903470902456e-13
9.495897044109677e-09
1.448433016288384e-09
3.986461881741183e-13
1.433857611098467e-09
4.726725694552722e-13
1.428444003231492e-09
5.348426146637951e-13
1.414106709115309e-09
5.977181347986303e-13
1.37685110785441e-09
1.357790803679466e-09
6.759747181041061e-13
1.394170774314297e-09
7.568939907378611e-13
1.425962496401415e-09
8.561794788461362e-13
1.431323647231574e-09
9.332874342957756e-13
1.405524446699054e-09
9.944237633334209e-13
1.39314773489154e-09
1.16585863268747e-12
1.433618190040621e-09
1.476375146417122e-09
1.501595733908158e-09
0.0314650784317019
1.512443972108536e-09
1.515745494480108e-09
1.624666921600264e-12
1.650384441443693e-12
1.515054693027068e-09
1.513909109903159e-09
1.775591422236698e-12
1.510920893254927e-09
2.028136301229302e-12
1.50773675209951e-09
1.50150760914479e-09
2.365833145523845e-12
1.496674236349517e-09
2.576605482253832e-12
1.49674567300745e-09
2.834215621849979e-12
1.497430482636883e-09
1.500820462027382e-09
3.240316359508037e-12
1.509713299951589e-09
3.575335532743105e-12
1.519072287847217e-09
9.982327674209708e-09
4.053068935364042e-12
1.523369582450734e-09
4.516478838275951e-12
1.517972577186501e-09
4.826086319999693e-12
1.53202675074686e-09
4.990805982452246e-12
1.551577725310213e-09
1.569402062119753e-09
5.094590752795241e-12
1.581634392219329e-09
5.211839381873764e-12
1.585710468765296e-09
5.324574589401234e-12
1.583398844014383e-09
5.385549335012497e-12
1.577300181852748e-09
5.622399712107417e-12
1.567370026658056e-09
5.904870447423975e-12
1.553430951174653e-09
6.215627107381943e-12
1.53750058843972e-09
6.742745125886366e-12
1.525082411436711e-09
1.52062507692594e-09
1.522864117262088e-09
1.530687035586262e-09
1.538351128844539e-09
8.218252618023591e-12
1.544439557673508e-09
8.405722826633903e-12
1.55065794519055e-09
9.070775706852788e-12
1.55631427959019e-09
1.017205384435486e-11
1.562127892401908e-09
1.56406133643946e-09
1.116322904135671e-11
1.562759083368304e-09
1.190063090142553e-11
1.559286252636443e-09
1.246871705911026e-11
1.556237334454204e-09
1.286637177805443e-11
1.556065524091215e-09
1.313856675502451e-11
1.556792266373136e-09
1.33704328752677e-11
1.559106542148681e-09
1.363770360915273e-11
1.564961821993554e-09
1.575745691647347e-09
1.588346129307594e-09
1.599597299501247e-09
1.367624573321319e-11
1.611953909906937e-09
1.394563445066496e-11
1.624471111323363e-09
1.452515346841488e-11
1.632939229143887e-09
1.639523097400913e-09
1.529011992491857e-11
1.641791812337227e-09
1.601901689039799e-11
1.639649837467963e-09
1.662668765475142e-11
1.638894349262146e-09
1.710461782524858e-11
1.636135621501246e-09
1.763493948853161e-11
1.628211013843952e-09
1.617963200662373e-09
0.002206379094704286
1.605292904467699e-09
1.793497056857299e-11
1.587508304461746e-09
1.811516819552599e-11
1.569885806536216e-09
1.845883449718132e-11
1.557551248100616e-09
1.553305035595545e-09
1.556068021638343e-09
1.895470053497483e-11
1.569006706763028e-09
1.936523153369159e-11
1.584938024910874e-09
1.983999298698384e-11
1.59472557704558e-09
2.047215364620217e-11
1.60420058675113e-09
1.615742388615867e-09
1.624735984198019e-09
2.087030655834882e-11
1.627236308313669e-09
2.093252526911787e-11
1.6213831673839e-09
0.002587366014053642
2.110071792555369e-11
0.00267096836775557
1.603576062679515e-09
1.573301677478861e-09
1.543332119936496e-09
1.519966051236841e-09
1.503328627308518e-09
1.484823208099388e-09
1.462747657024061e-09
1.442617288825327e-09
2.556557509699554e-11
1.434960058794617e-09
2.522662917965862e-11
1.437918346655359e-09
2.520698329973418e-11
1.445932342812068e-09
1.454222310711677e-09
2.555352160740366e-11
1.462010106605991e-09
2.606147360810111e-11
1.465880538289708e-09
2.674109575413707e-11
1.465936656628805e-09
1.465635991338416e-09
0.01978300239769094
1.465661276277327e-09
1.466628258569585e-09
2.74130448250091e-11
1.461128755702054e-09
2.754491138123647e-11
1.449285970044168e-09
1.436685455085273e-09
2.778940929514277e-11
1.423067597175174e-09
2.842123386434595e-11
1.412911832755842e-09
2.923769562684621e-11
1.411413415390603e-09
1.416124340004839e-09
1.422017511108572e-09
2.992497022254104e-11
1.432219750048938e-09
3.051451222018965e-11
1.440253914456611e-09
1.44417284242242e-09
3.124943715358863e-11
1.444770251338729e-09
3.217844414016912e-11
1.442877618528144e-09
3.318010283363354e-11
1.442873904757873e-09
1.44541895593592e-09
3.402913057014626e-11
1.449123298048012e-09
3.481852621935959e-11
1.446746923373844e-09
3.558301971836896e-11
1.437246491535941e-09
1.429033129923626e-09
3.6218062835685e-11
1.421976177822518e-09
3.68167318262812e-11
1.412995500437138e-09
3.729186821691079e-11
1.395307736387146e-09
1.382184885141468e-09
3.784583248866191e-11
1.375483675643106e-09
1.365514926824036e-09
3.888426953413006e-11
1.348197632007588e-09
1.333376359670444e-09
3.971069182246935e-11
1.322758731232312e-09
4.02398282238784e-11
1.313537293563734e-09
1.295659873410011e-09
4.09240590016353e-11
1.279489544617879e-09
1.265226857684771e-09
1.247684235298056e-09
1.235601314002119e-09
4.106204375896143e-11
1.217320870151406e-09
4.066609221329313e-11
1.202640185560921e-09
4.083615567716337e-11
1.190114900531012e-09
1.17928991960898e-09
4.163429818442782e-11
1.167452248146564e-09
1.159054626274411e-09
1.148415475691809e-09
4.169074709616387e-11
1.138285162875448e-09
4.187745532602095e-11
1.124906402642563e-09
4.215871154818419e-11
5.028787696016412e-09
1.139193023605393e-09
1.085088683816552e-09
4.282559008318755e-11
1.079399163129154e-09
4.398668156910543e-11
1.076068968220854e-09
1.073224280410897e-09
1.066402055228171e-09
1.055692164455837e-09
4.526918312280077e-11
1.043925344865794e-09
1.034949646460143e-09
4.55610635935218e-11
1.026381957504777e-09
1.017545542035535e-09
1.010825710719901e-09
1.00615428180725e-09
1.0020041793295e-09
4.769284481009082e-11
9.983232484993884e-10
4.768805039748813e-11
9.966601687477613e-10
9.985437205757667e-10
4.778673289717183e-11
1.006563876671814e-09
4.810687639191648e-11
1.013354052413657e-09
4.898941510453541e-11
1.016266193289774e-09
1.017826018710376e-09
1.019049484460901e-09
1.019540006824533e-09
1.015696127631407e-09
1.010142392683069e-09
1.007917217984293e-09
1.009351898462084e-09
1.008379039707085e-09
5.305333345147956e-11
1.003169421450864e-09
5.183946155347673e-11
9.946557146251606e-10
5.153349966146818e-11
9.815803780157933e-10
9.654086931960836e-10
9.511841627975438e-10
9.432164784982946e-10
9.400100609846733e-10
9.373021039791793e-10
9.335869210866407e-10
9.30886796119276e-10
9.284105767236993e-10
9.286116426208775e-10
5.447451236702774e-11
9.306953139434637e-10
5.266019300245972e-11
9.331468484220095e-10
5.189404494835685e-11
9.337648458699955e-10
9.329187278966816e-10
5.172636520453497e-11
9.316402512356186e-10
9.301353953134768e-10
9.2884894582845e-10
0.01781516901720302
9.273289905622691e-10
9.247555746304908e-10
4.998762939071818e-11
9.226073075291415e-10
0.004982237456366425
4.89402835045875e-11
0.005026875331716134
9.158485585812081e-10
4.847153814089233e-11
9.076134477421019e-10
8.994383916798122e-10
4.838713222864951e-11
8.937015484517388e-10
4.84594440197097e-11
8.943132851747584e-10
4.841326663232178e-11
9.022728503294355e-10
4.813088146443689e-11
9.068253640580451e-10
9.068540207158718e-10
4.788329048761063e-11
5.621631097320557e-09
9.163325197139279e-10
9.017226612244402e-10
9.069412009628269e-10
4.457471275686657e-11
9.155809080753616e-10
4.249535449920706e-11
9.192619749214644e-10
9.163299043649244e-10
4.118033903944699e-11
9.067307957723268e-10
4.07052863075557e-11
0.02950341686415963
8.867766683261023e-10
0.01150336374127619
8.647517976929438e-10
0.01170434970963086
8.476760319003718e-10
8.284092418733433e-10
0.01175865905671912
8.074382695032117e-10
0.01194159277882018
0.03460045232382251
7.866373709005089e-10
0.002870474773526157
7.747633809104293e-10
0.04096799016675237
0.02685952823219649
7.595552231435953e-10
0.005086692577886045
2.895629863830205e-11
0.01634509585980441
0.02593642081241124
7.38142696621613e-10
6.336036626236289e-11
7.238576014137139e-10
9.750355878177884e-11
2.142246302170092e-10
0.00820796683870845
6.891732539846807e-10
5.428883410529686e-10
0.0102732248406571
6.601471356041991e-10
1.53706361951776e-09
7.893170602806645e-10
2.125105485386737e-11
0.01222374299705198
1.152210643870563e-09
0.002503726208151802
0.001034957739727018
0.001368088332677305
0.001813349883530258
0.05031174935855548
0.0435612226587147
0.03243013665354431
0.02902128830676598
0.02440781808482512
0.01908965866554255
0.01384261142162413
0.01336266311747194
0.009916700298049355
0.006881678753639815
0.003102168457173199
0.001293028643046058
0.0001027301275484558
0.0001074534893597962
0.000107102652917046
0.000107820554901873
6.806437206778956e-05
7.423637386672626e-05
3.381583474048924e-05
0.0002819939884447519
0.0003054675889297603
0.0003066915933139263
0.0003140882944174948
0.0003133178115052117
0.0003148340603607653
0.0003155583736491621
0.0003180019418523819
0.0003182641031054855
0.0003182715009985891
0.00031825346482889
0.0003174476893121138
0.0003125386935091934
0.0003089154042436961
0.0003108657432792594
0.0002902214269562461
0.0002660587912637904
0.0002605809395640273
0.0002289104296153503
0.0002073588231361092
0.0002116361109671141
0.0002142816691268598
0.0002174741519106707
0.0002558457692146151
0.0002635496263427477
0.0002717192639114575
0.000333980894997689
0.0003218845736280866
0.0004047930771762841
0.0004210325833507247
0.0004376729400442205
0.0005245190235853089
0.0006601400681084198
0.0007792741908795321
0.0008608920436041301
0.001000167167972928
0.001028313941602122
0.001289357186640666
0.001250488577944482
0.001329733590113603
0.001370506754284066
0.001606752174400374
0.001631420682491217
0.001658688677891155
0.00168777131814248
0.001710785107658334
0.001738073996934154
0.001766781110423454
0.002018617759521943
0.002148392114282769
0.002232556198993885
0.002259130371673304
0.002284277469261249
0.00240110234321843
0.002433876789094701
0.002707007036927902
0.002820341961712605
0.002806488015517361
0.002988613795919083
0.003028502848419366
0.003142657957369005
0.003170424396137601
0.003201168413001724
0.00322436118655778
0.003245422473189946
0.003404058194338907
0.003365762049437131
0.003436381824856658
0.003469473798779183
0.003620196746488883
0.003730220546892712
0.003846374671777753
0.003872166661907811
0.003944684079851611
0.003975570906486476
0.004107476605196213
0.004078571851409024
0.004254205392541331
0.004397483837317724
0.004416406748669277
0.004587721807978157
0.004597000783389539
0.004602438593553015
0.004609717415237586
0.004618157307705549
0.004636762997961758
0.004658873403929362
0.004776003631077701
0.004794115776943081
0.004808395326403573
0.004819875364159508
0.004818117346812621
0.004808685749388906
0.0048246329280983
0.004856337973180268
0.00495820002892725
0.005074941438869924
0.005055280629492696
0.005152380069027926
0.03912716909731621
0.02351035633381661
0.04280775683325715
0.0285194725669412
0.02751307804041589
0.02646838057953632
0.02541953354050495
0.02445313566265403
0.02347746800029901
0.02259400071841312
0.02187521422283019
0.0212432112236375
0.02063390007648095
0.01727090711508336
0.01671442652680855
0.01504350997806821
0.01499780283011436
0.01493659959711256
0.01485263677953427
0.01473249776072137
0.01454116172220911
0.01436998018194575
0.01445525984094604
0.01460988448032879
0.01477448025851937
0.01487565016215905
0.01556050587252012
0.01570714308443804
0.01587828564727584
0.01613865327851948
0.0162290773346211
0.01676717570796887
0.01681343708283844
0.01702257134813189
0.01712643746731604
0.01798003862788524
0.01930563554779498
0.01984247779778027
0.02083087025120688
0.02092555672589245
0.02103129964979636
0.0211694275395931
0.0212662705476207
0.0215423007880817
0.02226755544054268
0.02300686925380612
0.02406031224199322
0.0247358837887558
0.02483440173330451
0.02806252614933798
0.02830358413728669
0.02854077000865951
0.02855860532560032
0.02855504280636262
0.02851399292635425
0.02934669568358475
0.03077626870984793
0.03147447706146126
0.03149365582942267
0.03175371422279467
0.03349845139518684
0.03397729012308219
0.03621145002795047
0.03637237773515042
0.03627645083291992
0.03616633070490254
0.03587319283696326
0.03577958493945461
0.03755740521878175
0.03787672619908673
0.03773575206187561
0.03753943290612449
0.03754593754282723
0.03885471315334488
0.04027466126095908
0.04044904075504056
0.04032389199160822
0.04013266291682485
0.04011592506841744
0.04036221300664806
0.04245475693854713
0.04214084254721828
0.04516016056248842
0.04535412893430064
0.04765296336478268
0.04872314329661968
0.0487597824791259
0.04864912737561987
0.04747111823185701
0.04734458688518677
0.05132373808694484
0.05267799300127054
0.05263406956627521
0.05238366202894588
0.05209376216244535
0.05200589277107753
0.05208414133076244
0.05167257593955566
0.05104064661552833
0.03929809409350193
0.04901093868791088
0.04640683356492448
0.04460610681307546
0.03820322304556945
0.04268688290389554
0.04238845890564842
0.04095412604722463
0.03865614072982813
0.03557141183536791
0.03124355465629237
0.02950716488316654
0.02722131306177794
0.02430053251893603
0.02092729400891085
0.01819571523911755
0.01234112990277728
0.007790248956043073
0.004287300450154718
0.002071393768281848
0.0003210682428762472
9.529346515837954e-05
8.380401810968706e-05
8.547742821331857e-05
8.553303437435064e-05
8.621197285027872e-05
8.723721958146093e-05
8.867392452681061e-05
9.068247289601412e-05
9.37417203999409e-05
8.729838143783685e-05
7.9799210781893e-05
0.0001001791851967917
9.690341258438132e-05
2.346826651134155e-05
2.924395178367513e-05
4.011895723390687e-05
4.733143178290419e-05
4.579552200013678e-05
5.099216736736346e-05
5.807239495564074e-05
6.26916836929535e-05
6.735545808107892e-05
7.270631006737205e-05
7.870250537022561e-05
8.510043799760841e-05
9.215243578487208e-05
9.988095915674864e-05
0.0001083641142250604
0.000117882644482652
0.000126856607010906
0.0001337174486598771
0.0001350132600527502
0.0001385035433387435
0.0001496577632294352
0.0001664653033558183
0.0001908065126554978
0.0002286936884163611
0.0002555097758180299
0.0002618370004957304
0.0002644594567191945
0.0002667513172321132
0.0002695659430611434
0.0002753360119209529
0.0002495149669134234
0.0002360407440511658
0.0002848800665568262
0.000296149336645745
0.0003040583937823586
0.0002665049991228637
0.0002676135010572679
0.000307758206802418
0.0003086621433278753
0.0003094596059652666
0.0003101743901205582
0.0003108980614033221
0.0003116623399704649
0.0003124944232976312
0.0002714837287024738
0.0002717432960897345
0.0002717872213566474
0.0002716003699427456
0.0003162351211072832
0.0003168337131715211
0.0003173484950763605
0.0003177667555947883
0.0002644371807616641
0.00031812013052718
0.0003181778432379895
0.0003182047745076268
0.0003182051911469601
0.0003182276026166066
0.0002336106169221967
0.0002263903849968725
0.0002188560124909848
0.0003182056370300902
0.0003181109778331925
0.0003179624413582636
0.0003177811638051621
0.0001830464217190587
0.0003169994806959779
0.0003164609213195931
0.0003158366929402999
0.0003150490090723373
0.000313970524180566
0.0001613988590180872
0.0001610399804222827
0.0001616497263478239
0.0003039622917526527
0.0003066437079311542
0.0003009522764602052
0.0002976813219525101
0.000294163745307473
0.0001861999615115069
0.0002813492435370399
0.0002859459152381408
0.0002764205499028816
0.0002713619335505285
0.0002329249698999283
0.000244944870384644
0.0002550866212024989
0.0002495921396559816
0.0002441473574765676
0.000238846553494819
0.0002337668853611952
0.0003351042685613145
0.0002203496875907339
0.000224425011872297
0.0002167000699654621
0.0002135482425270347
0.0002110174542005128
0.0002091002525684554
0.0002079196977718271
0.000512404541658851
0.0002075194304392891
0.0002082647457427747
0.0002096673562995231
0.0006216661503963208
0.0006513789755155438
0.0006818395097332402
0.0002212443168036151
0.0002256077392663731
0.0002305873676226299
0.0002361355189513133
0.0002421955149095938
0.0002487696515296991
0.0008902689295576328
0.0009167961031737498
0.0009446065649972644
0.000280428670758588
0.0002897303450942815
0.0002997505791156091
0.0003104288721634726
0.00109161221494068
0.001122054100969808
0.0003469374013782672
0.0003604237689006287
0.0003745733519527786
0.0003892968378772907
0.00128642859680767
0.00132177720368715
0.001358231206019659
0.0004544758487251709
0.0004716771264593572
0.0004889875679493449
0.0005066164363374142
0.001526578111999576
0.0005427984693950103
0.0005613633837968047
0.0005801854894591959
0.0005993654715205784
0.0006190544925344617
0.0006392632625575979
0.001776674618764575
0.0006819190133730145
0.0007046326155697258
0.0007283743213524142
0.0007532038638544795
0.001946923759762901
0.0008334373490647505
0.0008061599405738259
0.002045599974930794
0.0008885625378416785
0.000916513224798279
0.0009445001305036128
0.002181090425684342
0.002216287213070737
0.0009723379305298962
0.002254030073389974
0.001056794343412126
0.001085901435345569
0.001115877374249153
0.001147018817569845
0.001213987576569997
0.001179653101200511
0.002485166052392019
0.002510422308778089
0.002536455438316682
0.002560721195974691
0.001400024494304739
0.001424936401874788
0.00145049976545884
0.001475321286698049
0.001501759425623586
0.00152863286740557
0.001555228807664664
0.001582738349466393
0.002803297689460703
0.002828373000867585
0.002858659414440135
0.002887175648617874
0.002910637825397167
0.002935781678535501
0.002960848653189985
0.001789979869973101
0.001817158928925484
0.001842489781713308
0.001867303252650632
0.001895598457523337
0.001924317267092004
0.001954465347251111
0.001983352406868743
0.003165247743226626
0.00205232404428639
0.002084192710429769
0.002116619399123775
0.003277397283636522
0.002176832211623184
0.003288688916282443
0.003302663282476163
0.003318403674733934
0.002312465962564898
0.002342140711805019
0.002369808909470105
0.003401989841753304
0.003430475830399641
0.00246977489864705
0.002508132111744408
0.002548940901469062
0.003572836963065452
0.003600204801494542
0.002633686981917049
0.003621487673203624
0.002734445306986181
0.002754084797865743
0.002769378787439334
0.003640651994369748
0.003646154590268906
0.002786821699511987
0.003662482490185044
0.002836897103280474
0.002857060607581119
0.002885883967064356
0.002919173278506079
0.002953186993807384
0.003833420471133792
0.003864060773686046
0.003059819511034164
0.003088686400279427
0.003122663126123736
0.003992357587162805
0.004013467453495587
0.00404267257431314
0.004069421992109878
0.004098248666891068
0.003267144983556384
0.003294317094992153
0.003312415328202855
0.003342612756205302
0.004257182996422065
0.004303615940880147
0.004334698437014143
0.004376006950207058
0.003509671536639072
0.003557772215190985
0.003591160447811393
0.004559296749750578
0.003668875757627719
0.003651193420776837
0.003696980971717776
0.004722358776704919
0.003758810330972961
0.003784198593179219
0.00382069957879264
0.004845516777061137
0.004864343176128157
0.003900133540467033
0.003921084290025485
0.004941399654491382
0.004966526479850361
0.004022468790570013
0.003988575251467529
0.004036022972720069
0.005045511456479969
0.005059257932211245
0.0041345409973681
0.004163913797809885
0.004202336277804593
0.004225851946466146
0.005117637505778658
0.004288984625453573
0.004314554420703008
0.004333393149209827
0.00436236199190738
0.005163502278532689
0.005172061522823362
0.004442034131095037
0.004474789697885995
0.004498724685622525
0.004524401537911358
0.004533390998616028
0.005219669821025273
0.005231688359032514
0.004571739620253691
0.005243766438530913
0.005256397391148957
0.005269531605770994
0.005283196471638218
0.005296938142262898
0.005309945136278933
0.004674746224214412
0.004694080383013386
0.004713861720873933
0.004740199163797232
0.0047573324499325
0.005371569836608007
0.005380123171817626
0.005386813205878765
0.005391830628418515
0.00481717585811622
0.004818383355608484
0.004811588180680881
0.004812609558122065
0.00543231274913764
0.005440204606574523
0.004781797473399338
0.005447713684406531
0.005454062842652292
0.004828421430306053
0.004836459659060086
0.004843215260382301
0.004846939092042613
0.005478559725142947
0.004863292896107914
0.004871401632701676
0.004881977902283098
0.004898253461932567
0.004915239465728628
0.004949640874244102
0.004936742632599422
0.005546528038901089
0.004966157406735569
0.004962958228181004
0.005573106127550237
0.005578290346113943
0.005002557712855704
0.00558339538074522
0.00558839308386145
0.005101963504665045
0.005117865343928384
0.005134381633548846
0.005147632354412438
0.005154578709211417
0.005154366651990109
0.005614472788646147
0.005154755488128158
0.005138001255021814
0.00515753076596483
0.005165797352096084
0.005155873901607472
0.005164782481509702
0.005182231313620283
0.005194740910316044
0.00518742755796717
0.005194691157488462
0.005193878774538551
0.005167015713416549
0.005280027195447133
0.004864171234296058
0.004651664716886454
0.004170419824983697
0.004015374207961386
0.001166595285294916
0.01464898146864384
0.02640157491209732
0.02060439901552013
0.01918021313572361
0.03188273824331687
0.03125320663243026
0.03102967654808264
0.01802194769343086
0.01741100739692125
0.0167692637758029
0.01608273625478881
0.01537182149560103
0.0147448784864462
0.01408170132584768
0.01351220198776969
0.0130955269146861
0.01273407960012393
0.01237330350926662
0.02006616496813404
0.01953948792114899
0.01896179482204927
0.01833526287120687
0.01059711928024294
0.01027374510987157
0.009938644956904443
0.01622706987438081
0.01577432226569105
0.01537965802200806
0.01513362853802009
0.009166565585681697
0.009159772624021551
0.009122958001448626
0.009086640987034541
0.009023887698610022
0.008867971390014794
0.01440032211813041
0.0143148764028469
0.01431395334393545
0.008784558565428572
0.008851005728221223
0.008971482646581819
0.009092954215999247
0.009138519542781835
0.01494321924879235
0.01501780007807516
0.01513262757329025
0.01527541997539473
0.01542124496118854
0.00953358150249764
0.00960472869660025
0.00970482316589061
0.01599572543273042
0.01606389201090963
0.009788599797972662
0.009841270636851312
0.01633300018985911
0.01643616445936205
0.01654632297142558
0.01666192376713149
0.01673023847040727
0.01019317511188078
0.010204968696315
0.01684944455416404
0.01689611123556307
0.01694993339938403
0.01024617873758664
0.01030198510272097
0.01726623782644911
0.01744552073064723
0.0176346561434145
0.01781835355609702
0.01077603863594102
0.01815260927795753
0.01831704779890295
0.01847499214354082
0.01862235059475808
0.01873882710739604
0.01884386910541526
0.01893313280431627
0.01900782473224401
0.01907953013187054
0.01916384709259377
0.01924629964260682
0.01929030418105131
0.01153716734043795
0.01935684559280615
0.01943684943541982
0.01953128120242403
0.01964834014727383
0.01973583790803835
0.01178249168385272
0.0117968720836737
0.01993557706429468
0.02005958766588415
0.02019827511594234
0.02035761998359379
0.02053409498554075
0.02071335586114198
0.01235686435027582
0.01239390369800402
0.0124535026368087
0.01256113654636334
0.01261381830090966
0.02130395462392294
0.02134678477566053
0.02143895728562448
0.01281033129579296
0.02167379223001041
0.02180831267670038
0.02195738561175687
0.02212886573592478
0.01331298471337553
0.02243214924515665
0.02261300767842367
0.0228162178854794
0.0137928698193941
0.02322474010749436
0.02343736604811609
0.02364381895348481
0.02386044787910385
0.01448677976253393
0.02428075305422688
0.02448790314890269
0.02463247582334492
0.01497901016341972
0.01503178416017286
0.024906627078165
0.02498356978022876
0.02505835523353988
0.02514945098054146
0.02527131920406473
0.02543375900862999
0.02565174608018011
0.02599862059910386
0.02647989311445881
0.02703004300761987
0.02748457097371475
0.01710942405757261
0.02780745744504
0.01725657895535155
0.01741964143337438
0.02844891713022128
0.02852019574746543
0.01756632276430766
0.0176031514476966
0.01764251206586627