/*--------------------------------*- C++ -*----------------------------------*\
| =========                 |                                                 |
| \\      /  F ield         | OpenFOAM: The Open Source CFD Toolbox           |
|  \\    /   O peration     | Version:  v1912                                 |
|   \\  /    A nd           | Website:  www.openfoam.com                      |
|    \\/     M anipulation  |                                                 |
\*---------------------------------------------------------------------------*/
FoamFile
{
    version     2.0;
    format      ascii;
    class       volScalarField;
    location    "2000";
    object      omega;
}
// * * * * * * * * * * * * * * * * * * * * * * * * * * * * * * * * * * * * * //

dimensions      [0 0 -1 0 0 0 0];


internalField   nonuniform List<scalar> 
104311
(
40808.35629711972
44718.59111622861
46065.98094019132
1114910921.135536
1234337136.274696
912083980.9359734
3399582402.193156
710537494.895425
3477607617.657214
3498376156.082943
630084003.6625861
3516911789.809954
28173.00947416645
601235741.0744367
28291.95118236389
592738351.8588943
1848375095.345681
9406.968345417994
1555380833.214873
579851638.1201295
1557559010.697016
1561795799.975226
564422025.5733727
1528426279.308404
558537595.5820568
560255485.1601697
563363916.5953035
566500878.3352681
1349148035.746907
1321421473.694966
569918836.7521466
1292868855.594882
1264441923.113124
573967412.0923285
1237624641.075265
578158948.3781812
1192756600.289462
582439847.8707975
1173006863.572407
586847752.448681
1153621076.170581
591031523.5397637
594725915.4282093
598264269.1670417
1069060235.073217
1056924577.586024
602386179.5952443
1044697271.728403
607685445.2192369
612261011.1508932
615903720.3730431
618911822.7424752
988921777.9800931
620756658.2569172
981062136.6879344
622273312.7227149
973571734.5179646
966641406.1801695
624725519.6378062
627293727.4233327
955544534.6771145
950639301.5423542
629891286.9958282
946055268.0365864
632453716.596505
941956670.2255242
634977468.7150916
938354272.8466864
637569099.6742463
4998.305912536757
640144214.3931404
928824232.0300723
642890993.3688732
925473808.0148404
922117356.8141642
645424008.6528192
647371466.6563226
649221806.8522537
908030335.2804844
650884293.9733275
904362085.4302185
652377879.3875961
900792239.2357342
653708432.6792066
655027681.2941349
894131496.1835829
890681683.2701132
656317477.1381971
887468514.804496
657655921.9463342
884279654.165151
659212587.0350651
881309311.3728032
660867554.0603784
662604804.2620603
664241007.4741907
665881493.6333965
868495082.2489759
667483738.1143486
865721675.9596306
863107957.2253077
669012735.6683533
860683022.1144339
670412682.6585389
858510054.1288213
671625315.1554662
856638654.8453743
672655768.8263842
854421102.8991823
673673309.3841723
851557771.3559245
674483986.4292386
850260746.1340648
675289622.3917032
848766917.7393079
676091284.4504422
847281433.6425639
676924246.6754354
845876870.7837465
677803795.2437584
844447538.6522411
678854505.852487
842903355.4532086
679960992.0337323
839750733.618836
681121091.7641625
837770945.736619
682321307.9499311
836013309.1881826
683531612.8887585
834288698.7912854
684755121.1429076
685971982.0198854
831318026.0668675
829508962.859435
687262800.5998814
827756972.1165159
688418830.0066719
825936192.4553459
689546855.0148035
824225054.2839867
690655916.4955105
822387914.6882429
691743185.1173491
692787854.7164257
819061716.5866773
693891909.5589206
817350204.133148
694853320.5355973
695821210.2018667
811956560.0783705
696699960.1404476
810256479.4411118
697722092.0080975
808520468.5640379
698220752.4275588
698968760.6196905
806633224.8160468
699834596.4001005
805379195.622908
700681682.535169
804191518.1922511
701429990.8307356
803037578.5485166
801919515.2686905
702203679.1025318
800826815.6231152
703015420.3715774
799569703.3522145
703838149.8710291
704778105.0406008
705639697.1542404
706523682.9265195
707394059.2823545
793658859.1329522
708239826.2163643
792434715.7915908
709049006.6899775
791328340.1435611
709755192.6462305
790386916.0507107
710443661.2792568
789490483.5454433
710900560.5038457
788607955.4850069
711339494.0431545
787824403.2088382
711742049.8607067
787151412.5260127
712137710.8214352
712537159.8734119
712981815.0160627
784858632.9312927
784057186.0255609
713432785.9052362
714034672.8981924
714698136.5484633
715536003.1489991
716446334.7813008
779809024.8326483
717453055.3477761
778912977.2766784
718424188.2111434
777811820.9401896
719456184.9330294
776850505.7514602
720518133.5510643
775999887.3801166
721601954.9459546
775175399.7392838
722673193.6636071
774395918.904099
723725924.5008028
773597675.6371111
724760886.3886244
772835490.9191583
725786022.7453828
772075930.9894574
726804624.2139548
771330904.5698689
727758315.6653296
770575718.1066316
728683813.7351342
769910052.7525324
729602743.1558567
769474771.9331782
730440702.7456123
731196578.356988
768303215.0434768
731872398.3252782
767533895.2676812
732495854.986153
767015836.9779458
733027833.0688118
11383.96884819253
733570938.0363239
734084666.8443692
765365082.4187458
734572431.979073
764764859.1493999
113768902.5186795
734259569.3106014
763851147.1551242
735280087.289855
763031980.8223659
735782707.061929
762385458.9989592
736256770.8201163
761999115.5669997
736025095.0232928
736724179.3647201
761163547.7058409
737377225.3801876
760640817.3520211
737902845.6283283
759894322.3084133
738614978.6141678
759199961.7986475
738642077.9502473
758590193.2812104
739686387.0416127
758219119.0971239
740806560.2105656
741791223.4686168
742787152.6936501
10591.63583077257
743744598.5945718
744680115.9768541
756629091.9468479
756176882.6942551
745505462.595739
746235309.8450928
755423260.5962852
746802804.6162688
754941820.5142202
747255084.5685034
747658667.5149314
754051595.8330988
747993983.5536613
753557945.6894193
748429345.4648836
753156252.7190217
748868788.2829798
749384561.7305299
752392960.5098614
750051542.858807
751966382.3584344
750971136.2080004
116391356.6502891
751337616.9452115
751154973.9909859
750750776.1649077
753086109.6036959
750259881.3893962
754584063.3973197
749787240.4271603
755938479.3153502
757304445.8639785
749350187.5013809
758586936.9022343
749053912.0684565
759739214.0585794
748567842.5003277
760672440.0955417
748349357.5890698
761418105.4119272
747928851.6449633
761974438.0340314
747352845.5582933
762389854.8391218
746739223.48666
762744361.9496881
746385342.6150907
763062488.7565534
763418959.3591866
763791560.2143931
764207019.771656
764697203.1030245
744906341.8111328
765256743.1289521
744721233.8924605
765812467.1605586
744225784.9600734
766365761.4286863
743703600.3820133
766873729.7982415
767427858.9434304
743229553.5815679
767844477.3029056
742805467.2923862
768229369.5860375
742446538.0931445
768527304.2172533
742100899.9104172
768777218.3158457
741749142.7848033
769047509.4406124
741386323.3809016
769254800.8004839
741111471.4929366
769535761.3558447
769901869.0565851
770251600.5360984
770701338.8104806
740277882.6575969
771250048.4653828
740065586.7170544
771937647.1722763
739622901.3543963
772738863.4708862
773598190.9107589
739137964.9957061
774507997.3163559
738655007.2175763
775365853.54679
738278601.4768829
776241036.9804842
737935699.6034564
777019790.5666835
737699722.6843238
777615406.0202414
777976886.4605045
30324.28751126041
778144349.0451673
737149319.2566862
778184024.7094741
736925166.2105108
778218894.3511266
736691780.7252814
778313704.4053532
778536702.793611
778918105.8248876
736132146.4264512
779544265.0704813
735921111.202763
780468654.1363763
735631443.576142
781738097.7853361
735422357.6227319
783217039.9269612
784813719.046926
786396376.4302683
734933281.6964518
787895898.6301097
734727814.1985295
789155611.6942233
30843.95778751325
734466332.221795
30857.37823145733
790078992.5103894
790472812.8549796
790288875.5818663
789700066.8744998
788840556.8113801
787825181.7947109
786633202.0284094
785457905.4788898
733083180.3545103
784501812.4262451
732930776.6065748
783815527.1429781
732638798.7033343
783441881.8091559
783380759.2105377
732300089.0669008
783477776.32257
732001611.0739226
783725041.4860744
731755038.2082604
783902746.7676953
784144070.4509872
10479.52524080357
784341566.0928675
784301878.4573132
731139081.7659445
784091843.1669352
730977891.3455796
783419668.1150638
782505410.4338923
730674895.8046114
781488785.7204887
730360020.8921605
780422824.1481661
730168335.4572974
779339680.9454682
778255126.1615794
777273193.9931713
729830704.7486962
776372295.6746823
729719661.9553005
775773220.4091051
775147218.5850821
729545525.6120851
774725332.4148902
729366420.1036383
774373764.2514882
729195342.8478584
774082525.1791097
773746845.6026686
729022622.5048962
773350081.2917577
728848086.4113028
772907050.9820579
728658876.3411679
772137201.1651667
771298150.4651772
728414001.5875193
770379145.8176036
728188859.0631069
769420163.5825238
727960433.6898482
768303800.0770271
767234302.0662193
727718600.2570131
766433698.6451416
765496260.6023359
727758871.7431054
764587351.2939998
763696005.6795919
727271769.8999834
762959827.8985827
727047177.5333652
762175769.5439707
761522678.1331657
726938760.7056742
761176813.8147942
761045720.089515
761264818.3756417
761372456.9789402
726679893.3621799
761873638.4902638
726595640.6434683
762533735.4443091
726463293.1902089
763207353.9730458
763694968.1145101
726285580.6623168
764145936.9969429
764199515.6923548
764289830.0888468
726186181.2188412
764191540.7045417
726084886.1740707
763917071.4284298
725893692.6556658
119060102.2443633
762896859.9795774
763135872.1406854
725717623.2622865
762571805.8668778
725579739.7625437
762131231.3273886
761638913.1318922
761163697.7064074
760621851.7078539
725311332.3204696
759983341.462895
759159884.2919635
725203906.5665629
758212683.4490569
757171388.513713
756104772.6013628
755084025.4762406
754199345.1203208
724801256.9482594
753495730.5115204
724688515.8076154
752990342.5597405
752757575.4839175
724522188.9556075
752803368.4955884
724373815.760161
752986544.1778218
724269224.847002
753216882.8889617
753395139.4911524
753412628.8392066
753233340.8770167
752807464.9263065
751996337.9159344
750872079.1051428
749500153.7221763
748074090.6476226
724047188.0796167
746750481.805223
723874111.1292686
745574341.4810117
723729694.096429
744553082.4891136
743816218.2345607
743315832.9243973
743059981.8425919
742951695.487214
742872052.3835614
742807106.0186378
742555424.3605516
742214773.8897158
741686678.1002514
723393685.9300058
740984660.7825478
723207282.8070434
740154226.9227082
722975935.5494846
739239803.8266021
738293360.9203435
722790830.2562119
737521109.2371079
736745134.9320309
736132950.4713993
13133.26340513418
735785634.5157976
735745994.1126949
722372431.437764
735758022.0859061
37419.00979426892
722192630.1446904
37301.06839272902
735969880.8236953
721995004.2599722
736323873.9392273
736695330.6574451
721822486.3841116
737015584.5004711
721643065.512055
737130215.3212153
721437622.0989701
736903717.4796491
721264933.8296806
736454867.561751
735711823.2466466
721082931.5211536
113423433.8695703
734817959.600261
733731748.4274919
732421390.8313584
720620748.85103
731039343.5119454
720496224.8225989
730071770.9071368
729195244.1627841
720467913.9313259
728430525.1328993
720517726.6881868
13832.13928980076
728136257.4553466
27901.07105162138
728370011.09122
29065.88387858179
728294051.5322274
728056586.675626
30590.9290284503
727752986.0620341
31934.25677051152
15549.82552348982
727331308.5828464
68105.46916551726
726662963.9927596
16042.7327101242
21628.22143776039
726047699.3796463
40458.7818527903
1111622264.953483
34544.80763271606
24073.80508421224
724559121.0460366
1157323431.180589
723097290.8536718
747968080.3103238
750179610.8041955
59550.99861770478
721755628.4300463
754462538.8004488
50257.99974466875
720002930.5141582
761427477.3187119
717944366.5496336
1114356553.981563
42583.1718552237
972552674.0765836
107322.4114768752
148857.5028245883
144365.1645738471
93000.9933612523
48258.92013415062
60998.26255353623
85338.35486244745
91877.19483400033
99549.47280871334
106124.9359878989
119540.4088055633
175389.7570360382
260799.1578057741
283547.9168431092
236370.5412671777
119935.8259648227
30437.35609188247
29063.12799074851
28756.30130178325
29375.60667752044
13664.94756645092
14370.79904091472
12366.74099935056
4942.335731940577
4758.408947868521
4719.71724699896
4406.487504333639
4439.277460307777
4375.568994517091
4346.118698543472
4222.968130455408
4094.514886192399
4073.128958716004
4052.232983107896
3963.682226520916
3922.379612973275
3943.705899716418
3930.795649654797
4155.937133532164
4602.451624513849
4730.337550517089
5807.904047019238
8202.371633481742
9652.251206901436
10027.17712467234
10407.93571571752
13170.68750106071
13572.84226363828
13981.97263649576
16557.96889003378
16112.73291990671
18742.91225086313
19161.14792686918
19577.66830780293
21461.30696681091
23443.9281197277
24722.03368454828
25465.41106950098
26415.09756045996
26551.43472056686
27652.03013235735
27490.95414396249
27810.94253024242
27965.86390582018
29044.1754066894
29131.63056724067
29219.41312042117
29302.2591605454
29380.89403560758
29460.9384107081
29534.8858474863
30019.18037174068
30196.01666929057
30395.20588878033
30471.37750379763
30549.46783423276
30802.48647292035
30828.75079832684
30886.48211305874
31471.6125539552
31339.62525441189
32184.44314135096
32269.50373911194
32594.5411318094
32700.03678937096
32808.36477576871
32920.37957189503
33039.00435759586
33739.8549281608
33645.2021320518
33836.55184977387
33923.80897330759
34218.01408725978
34591.15785094522
35021.09715064178
35136.55414871607
35504.20166274754
35628.09205114233
36264.20160565081
36143.43670029794
36759.84589404517
37114.17060396617
37165.12060421216
37424.26559817985
37442.05600016304
37473.32531136033
37510.1272314884
37548.73091678271
37583.894912121
37613.43974648046
37557.91806986111
37520.15947673397
37487.25709075111
37458.40137396844
37536.93831864832
37519.14964335541
37548.34598240277
37579.71630972114
37516.31507998061
37137.09292728714
37221.31141733789
36511.29568518683
16764.98193810428
22466.7293727923
14923.58746457152
13633.02896119277
13491.73336927778
13405.4312205631
13355.47402392615
13326.14215939169
13347.46138930304
13366.72117914144
13347.64887782308
13317.79842301472
13287.88286945173
13149.82052109708
13212.59390230512
13215.33055121044
13061.43562274086
12938.68857741949
12856.54927799869
12839.28679188636
12884.14460868142
12646.79651638724
12542.33503347724
12441.90481775856
12380.21526329985
12357.14450430623
11957.79166880719
11875.57244309186
11810.9522397306
11804.76472842197
11806.17664541348
11712.39679751484
11687.50224163594
11584.31797282987
11541.71700559273
11259.73857991878
10808.29088851848
10442.62295348815
9984.868106524855
9940.670520136828
9901.079780664963
9863.245838061626
9851.366448280374
9934.721167721298
9967.700489107992
9971.577254477588
9981.338979482887
9916.865285348526
9922.987336314387
9759.787440787519
9765.170526708072
9978.129425950878
10069.69294317965
10153.3963503865
10235.11221598845
10524.51127563928
10509.82880516573
10630.17576647425
10669.56835131105
11213.43714814413
11369.62038832195
11613.91950226523
12738.51674626791
12857.03058116182
13025.57762701335
13135.29707969561
13136.15612992739
13108.45754396799
13711.83406727141
13893.52945265289
14158.41398302558
14376.02060616054
14470.49050853787
14807.61338316587
15417.28967717038
15709.8908083634
16063.63488287086
16378.73993279285
16575.29653963884
16664.33161197608
16812.33834959997
17370.54466166241
20048.71668297742
20260.05382907132
21667.85952308565
22915.87719669878
23254.47647796813
23576.52970877918
24731.90649478559
24949.86647241971
27241.54043499064
31436.82634690139
32429.32100522045
33400.9166127205
34430.9135188699
35624.56693332649
41822.29680459321
43821.28023390409
45967.75970487446
49477.58226917917
50834.35322210977
53767.85250281935
57156.53131987988
58123.50029839231
65584.20126193334
70402.61825276352
74608.07272073801
78094.34592064517
81297.43570752298
72073.20638264305
74281.13825063607
76146.72073450498
77520.44199625266
79800.97781912108
95454.08290141317
160610.4333103365
283400.4952003822
349470.1224502834
284356.5419989345
87135.55806832631
33192.7075168278
36395.74760776158
36471.4242358544
37327.14968533137
38057.26522805967
38756.27771697173
39323.29788413951
39563.01427765818
38782.19608430005
35608.46087498183
30077.62435007028
25814.17368351308
25248.34068354964
10582.86468607412
9973.525813551558
10244.93377408339
10057.4273974035
13753.44031647551
9047.82898245316
8672.197882345601
8188.299949469328
7808.220791707613
7493.952117196526
7219.426070143131
6976.773178472205
6759.921685025927
6563.617265289856
6388.943322351223
6236.345825673101
6101.369046337854
5970.796244816043
5852.386362641635
5754.259844218504
5671.996809065867
5598.642282380136
5531.928467563292
5465.188679481172
5392.808733205306
5319.491223749459
5248.400723547803
5180.728916536964
5116.862673807548
5056.714841949473
6452.199845701344
6383.426395199486
4890.290228262766
4843.303876910124
4799.642075455879
6170.94911635885
6125.506955403162
4682.24728776036
4646.056380478121
4610.932996940646
4576.396722399831
4541.65452246832
4506.757094397262
4472.552815060379
5778.773170143024
5736.863593776698
5700.252957870833
5669.631929029302
4318.359133437808
4292.420697419627
4268.302964624238
4245.621204943381
5652.718979258099
4201.22972435491
4179.626762979741
4158.343025775811
4137.280481066638
4116.462227550026
6291.515632585391
6501.60723649957
6749.6838651608
4032.163924273944
4013.051602827863
3995.256793381545
3978.937796515201
8593.826622910221
3950.566604592419
3938.817503179768
3928.636552165198
3921.522618993884
3919.717783227693
12091.72635252957
12792.61581844101
13521.82114715561
3986.547227206402
3962.519148347727
4016.963579396763
4054.75733372413
4100.780115588348
18346.75199037471
4298.998957378481
4222.54576919708
4388.440755249407
4489.166231106095
22700.51178845402
23530.01740277678
4871.555712688963
5027.108747781353
5197.459870741942
5383.821083879991
5586.489208088396
28242.83027076459
6307.460672052115
6049.018195061843
6586.258144602848
6882.189223082058
7194.033678362735
7520.579833546096
7856.305390883526
33687.13322263264
8554.069261548708
8913.731895054616
9279.643092658778
35438.8253937431
35781.30899956732
36106.06121291138
10792.12015552775
11179.56961455195
11570.85597019788
11966.20986854563
12365.07380183926
12765.70800527517
37930.46775191077
38148.54928486218
38374.96912877146
14395.23424178014
14812.5816959285
15237.25421244711
15671.7530820811
39504.41552294429
39706.48659504003
16993.37918658892
17433.65407967394
17873.80600107065
18308.29614325092
40662.41788284828
40817.4702347726
40965.27802903078
19981.46501335865
20373.76230473429
20751.50484664694
21114.01578641664
41516.18352836065
21781.58041248055
22092.13726153282
22385.72664719626
22663.93130515757
22931.90449439283
23189.94512010683
41517.01819215222
23691.25357092186
23944.74870503767
24202.99286393926
24461.51314011448
41446.30976775374
25225.08221008499
24975.58481735221
41459.56227567997
25686.6547287338
25897.89684619394
26091.33653011596
41311.98130001161
41230.58236388332
26261.50966129059
41138.11733666536
26680.78334461905
26805.68560248945
26929.44520391276
27056.49535955819
27338.89476863147
27192.94204757451
40504.93747244715
40463.77062112262
40436.59924138641
40413.55087883682
28118.92963351215
28266.76150570187
28405.80995543357
28533.26238197504
28651.08020951409
28760.2790076303
28862.42250201369
28956.53842847314
40176.82060316775
40137.13962990468
40099.52868066316
40061.57082780821
40024.47003908802
39992.52277458016
39961.41355086004
29603.58008022845
29670.56893553331
29732.33784986776
29792.40919207668
29847.81416236709
29896.85903992795
29940.45844352583
29980.38280351585
39721.24020791798
30055.10104289406
30094.57346695583
30141.95400666341
39790.93594490452
30256.08540880858
39858.82287436227
39935.92846373891
40017.87529393862
30623.22598483102
30690.76053564929
30754.40844624201
40287.40190281031
40317.11573049707
30842.23150246272
30846.23507530139
30843.93422027789
40332.02967990117
40344.01164906145
30844.69791353743
40379.91049398056
30938.38241072992
31011.42931744087
31103.17365219438
40795.6921254608
40956.52478367114
31215.59405766533
41117.70085393207
31610.19938167831
31748.62633154335
31876.38304536064
31988.51741166667
32091.03013203171
41734.17528948405
41789.25333504935
32347.52630831749
32426.08992525098
32506.9411484943
41961.51421998388
42027.89804159606
42091.22371466192
42153.63772550207
42216.19750804408
33167.83491249741
33292.98676724786
33415.24387825131
33530.28558185778
42421.77044591593
42442.67899985163
42445.45793072027
42437.84130075745
34009.22442568375
34079.99199225504
34147.97095673314
42351.60669932562
34392.32870634054
34304.26510334305
34493.28446997493
42290.52834860365
34692.98409802253
34802.10564681084
34910.59980069409
42318.79082124113
42347.54534191654
35255.41876408571
35375.70912564613
42469.10899497491
42516.8038099395
35893.54050965678
35758.24142189448
36023.82337523675
42701.78360621326
42735.15144325097
36371.20924274279
36478.9027908334
36580.1799315741
36666.98143508632
42894.8829645512
36835.79222189277
36906.36105765761
36981.74854694984
37049.73279057959
42784.05079683298
42731.67548752389
37219.77885829609
37264.89030368542
37303.10668541529
37334.42826459729
37375.83032228427
42493.63099214297
42447.20015331559
37398.38648947002
42399.71109347742
42347.66603141276
42290.23842084743
42229.04992318673
42162.2889146576
42087.06919388333
37634.45359644607
37640.73551530312
37635.26155807944
37617.08499078968
37589.81323952186
41229.62766824701
41052.89422712547
40877.61760825215
40706.96793181638
37443.445337078
37436.78795873398
37443.62102206912
37451.21074331665
40079.06506068991
40015.14609342373
37494.04347426428
39967.72942712258
39926.73549903527
37559.10768277787
37566.58191268107
37571.05429332542
37575.06229594577
39633.2192096436
37586.77728324533
37591.46475291337
37595.07059408473
37592.17915852651
37582.65357461377
37544.79956049801
37567.12804733898
39019.47392216026
37457.36368958333
37487.96327538352
38773.6720185834
38725.65221239306
37361.58223537553
38674.38931915923
38620.96670802634
37043.76630565373
36942.97787068308
36855.87710517216
36774.14036516439
36671.05021354293
36585.62871618696
37982.98958424426
36443.45558157281
36394.84050215556
36340.53938114159
36284.10869738804
36236.27295424002
36188.4041077948
36143.73885559935
36109.08211591256
36102.85173522402
36132.55629798432
36207.75109481422
36337.15820733312
36551.22175912835
42190.58586903074
44001.52966225828
38284.5657665959
39247.39947566992
180579.1334573837
31996.68219409266
23301.76838147354
22806.44447889812
22653.27452855829
15668.18383460966
15162.56518304114
14551.51755409046
19341.64355172103
19056.86270052391
18882.58149826335
18794.5083801697
18772.33714694976
18762.45591697432
18869.93992339552
18947.77852163718
18925.6168105186
18884.91717612575
18855.29325555464
13243.12950161424
13188.51154207579
13166.24612982105
13164.04784719927
18909.44704438025
19052.17683355588
19312.88113096487
13277.17193952554
13355.05944358614
13405.79067963472
13356.42237922636
19522.12848586092
19234.49292173999
18996.88509516898
18804.84994989735
18739.44643422162
18846.40011384584
12893.66851451419
12860.99739180947
12760.79812358734
18289.18199663274
18064.5710816129
17864.4221868719
17761.28123096064
17739.01802323212
12330.62045763856
12283.7759752013
12216.89582203189
12140.64963873902
12050.19814058021
17163.22482279036
17063.63577672154
16990.25236555804
11795.52406430022
11799.80889702187
17008.43442993244
16982.08383004298
11800.20090102756
11787.08125455479
11767.73528727041
11745.54458675034
11728.91436812025
16766.39106722954
16736.69582792815
11667.0513913977
11642.28829829275
11615.32306256211
16690.33415940755
16627.91057997301
11486.43699487531
11419.01454893839
11355.88587723507
11300.4875678742
16249.90204422269
11215.0118795914
11175.65312959454
11137.41048423323
11102.40733566986
11078.41740624996
11053.079297606
11029.28768382214
11004.73039721248
10973.73980060012
10930.16755847263
10881.64684377019
10842.13132337009
15480.48807975108
10757.16317516399
10692.64241452848
10627.0603844309
10561.56831739585
10512.48464038403
15018.81763288427
14974.52364039258
10392.04897827563
10332.29999305819
10270.30346858944
10202.13968274951
10128.08616932648
10046.87156363504
14381.67967743632
14322.22165741356
14240.68235102235
14122.27847948979
14081.27746686341
9867.88784499125
9893.938951204491
9913.960130562984
14123.49345559675
9949.027093464518
9960.125695627536
9964.840587614402
9962.074985640245
14079.81610307968
9969.203243036794
9968.924798805565
9966.625115915478
14030.82471617159
9973.653928658667
9978.300387969328
9983.994450146098
9983.96422079391
13980.72023355008
9966.185770869592
9942.470571781116
9925.238164956101
13728.92221729769
13730.41618057804
9953.314609784464
9999.718081614588
10055.53137556409
10107.70126955451
10148.92790267263
10175.88245845979
10182.74873628549
10144.6110447484
10052.71451593474
9926.618129653756
9824.6322239131
13253.44831444211
9774.167891214393
13238.59136728308
13233.11209394137
9807.159866256001
9883.859979744346
13554.223792332
13669.58886845004
13755.36754345853
13839.79527138053
10318.97804967792
10408.53514895866
10494.05508866577
10565.46190609692
10616.40466685422
10641.26998209468
10625.12896260588
10574.57148331224
13942.39684593012
10495.69857342824
10488.0067034079
10491.97209421433
13899.45273767652
10533.22299001758
10556.15954782507
10564.81059736058
10569.22360397391
13945.79016587087
13998.93012429242
14023.19106122192
10721.2661938372
10817.6939196208
10932.28344599267
11037.57688383546
11114.67999358421
11165.40635934215
14647.00840512684
11266.04172742111
11330.55479849758
11400.29985807977
11451.18759963383
11457.31192768924
11420.1293609845
14733.64768608435
14708.30416585391
11374.40058310362
11415.9478066283
11497.15979205158
15010.98976130125
11757.70025898553
11929.07055584932
12134.0067120754
12341.73132006826
12525.93663213419
12680.47617978938
12804.04705399207
12900.47668381682
12968.41291765739
13010.55997709117
13011.02242787232
12959.7021853565
12860.22720836428
12745.79055648727
16254.05278350442
16451.95604307523
16685.423058362
16783.44274079684
13165.38992682963
13157.4120767799
16665.54095034116
16617.35064425493
13088.93527464203
13121.95533863144
13217.88436636588
13349.68380937669
13473.41833353932
13582.05541772621
13645.58464598671
13661.75698657503
17238.167887797
17498.07231449304
17880.17180569273
18151.39102980695
18227.94452804263
14453.84155424737
14412.02853123896
14429.10905336767
14512.38887229032
14610.87554832558
14711.52723799777
18474.74415916824
14903.13705403512
15024.53756153009
15192.05811300898
19079.26732547662
19428.67830907044
19882.92390154042
20278.88275583788
20501.95059341871
20567.80089579733
16632.7637704733
16546.073206357
16517.43220693779
16573.05601815314
16685.61429962303
20732.52507669854
16938.22165458126
17047.02955014244
17150.63958792535
17259.17976290411
21386.36545383922
17475.80224988166
17562.7877479235
17638.36462844316
17715.86665170715
17824.8842278611
17981.10703330161
18176.5828729944
18406.22163330543
18613.02617881652
18776.38431756469
18878.9078441111
18951.70845804565
19040.49350252852
19157.70910607028
19305.83243178063
19525.8489541599
19796.15356073916
24208.36829553669
24388.14996332241
20449.4111892134
20644.06780190207
20850.74118564951
21088.09769802538
21363.3069804485
25798.50346630394
21977.27753656229
22265.0972545912
22582.04828953573
26992.73393049658
27320.24574347808
27634.69771703477
23889.49390136334
24199.25404635457
24490.0220633986
28749.65803560591
28924.54205386311
25173.07110638074
25443.18339188919
25773.96627343657
26163.67222886649
26643.78818882613
30804.97630099698
27933.62897983935
28707.79167286867
29553.85859862186
30474.32979358921
34902.57849105138
35757.75499388656
36617.24606428035
37543.54359044102
38586.08055311662
36930.29140007525
38362.25661396771
40017.04199000335
44158.88865834155
45870.03727727904
47649.11842496561
56767.22991048828
51393.28353940778
53421.13381234295
55699.3635870291
64539.29732005145
60847.56131993924
63690.94674968583
66267.48686645515
68422.78941441681
70252.02262629125
76333.11091347682
77310.62930657995
77379.09250076073
77276.3155954227
76733.96975715134
80627.20151437783
102852.4269854072
446454.0303824536
244092.160363314
39244.15298372687
40848.13411741864
41224.85656109705
42158.0821620131
43077.44923150366
44030.3048556529
44954.24729622268
45765.49189559369
28116.13083773158
25773.98914500608
21932.44559357364
37906.38412028456
38535.91613714289
37364.3305119193
23215.92631483397
1114712393.013063
18772.49082269017
1098307638.180139
16564.30089810676
1083297687.976797
164901991.7493972
15340.89718664415
162983634.0875668
14443.563814199
161067350.224352
13125.92565190932
12362.79893170648
1032126069.056996
11617.60234788617
1020909898.138655
10895.01817678616
1012487651.63137
10362.09633456155
1004958060.530391
9893.646377829195
997303525.2002305
152417244.9736749
9486.347585331347
151208411.2686894
9140.421104717507
150060445.2719034
8842.813098735092
149001215.99447
8575.125977615884
8334.315533158615
960663022.1852505
147310642.3827967
8116.226354529345
146564410.6824581
7918.472824820973
145867314.1092764
7727.667611846081
145244957.5890281
7558.432387698537
144699684.7536164
7423.507676556007
7317.771732268079
934928748.4342686
7228.000650014164
931885491.9046381
143258452.6016365
7148.809216089308
142753689.1859427
7069.099795092445
142244186.8313259
6979.37438886403
6886.469408787297
918493374.8539472
6793.703976655781
914960214.0675722
6702.04452008012
911417670.3999147
140119522.3426882
6613.825427845322
139616542.8470392
6529.441985242601
139109758.4025013
8007.118594650874
7917.933083923555
897160247.5506049