/*--------------------------------*- C++ -*----------------------------------*\
| =========                 |                                                 |
| \\      /  F ield         | OpenFOAM: The Open Source CFD Toolbox           |
|  \\    /   O peration     | Version:  v1912                                 |
|   \\  /    A nd           | Website:  www.openfoam.com                      |
|    \\/     M anipulation  |                                                 |
\*---------------------------------------------------------------------------*/
FoamFile
{
    version     2.0;
    format      ascii;
    class       volScalarField;
    location    "2000";
    object      p;
}
// * * * * * * * * * * * * * * * * * * * * * * * * * * * * * * * * * * * * * //

dimensions      [1 -1 -2 0 0 0 0];


internalField   nonuniform List<scalar> 
104311
(
39884.60242348912
29212.42927600386
23229.35137924418
51422.97609357096
47759.71994933706
66833.82585227252
16183.87949993293
82886.44972705402
15811.14193923122
15736.98274457711
91724.54456840787
15647.4209507489
16963.66578108118
96334.76033725882
17216.90984632838
99243.38150907638
36975.62488010729
101644.4765312656
45968.84474122443
102214.5717984122
45057.41167121282
43956.46369618731
103658.5605586885
44488.58183058698
104110.940608421
104079.7538245994
103755.8188612545
103200.1801926012
46900.99800457626
47617.09120806193
102521.9179882726
48408.85783284692
49235.71418191393
101776.7513582198
50040.64249123377
101000.5830269451
51449.78592530253
100226.6511603367
52067.17932134312
99466.1221648333
52638.60905174073
98719.55169064496
98030.87777994356
97352.31633616833
55028.65434180161
55395.99406384827
96682.31819662759
55749.79284673261
95869.3848754309
95128.89098453241
94509.05599335993
93986.70947650728
57546.50047674026
93594.26072564647
57816.67201423754
93291.1685838147
58094.05716971801
58368.81709041911
92898.7504626318
92493.57648324598
58907.53762186505
59150.57843442452
92082.38111668488
59383.58589485624
91677.27745799258
59604.48042259822
91278.77792906879
59816.51828916645
90868.82171444684
91045.2367656733
90474.80398844794
60500.735802866
90055.83439308888
60737.52350517792
60976.04539313459
89662.3170853637
89356.12096212457
89057.9464039555
61918.43279905108
88787.70443622979
62154.43178696605
88542.35120717036
62377.24634763694
88318.66939261918
88102.30613566781
62798.10566085284
63012.80420830011
87893.1197240925
63214.43186384117
87683.58073763337
63413.34492517134
87452.3144834963
63598.90540669947
87213.0244494736
86957.05571605779
86718.93074848305
86476.53381245084
64512.31765988861
86237.08535593453
64684.64231826616
64845.95399850186
86010.45298454454
65000.58272702563
85802.79529288836
65150.18961765072
85618.44600696872
65295.19741124884
85462.88109893042
65436.47790745897
85304.11936745123
65719.87741552688
85176.63167727155
65863.70221471398
85047.41585573694
66011.98487970931
84920.38234398681
66156.81991414983
84790.8790586094
66295.80579304906
84659.86873081334
66440.13125466782
84505.35578495778
66587.79331239472
84348.31987107234
66881.43319755212
84183.32236088213
67033.78587354514
84011.31373677986
67176.311368758
83839.00935280882
67311.72681795717
83668.03492781188
83502.3257188416
67569.13291356833
67697.53768196524
83321.29447657579
67819.41400578113
83157.90596808612
67942.943879593
82997.27545844707
68061.33565166863
82840.92200384426
68175.37640046484
82688.78828240471
82546.14601087524
68409.42959332002
82389.74591610135
68514.40155096092
82254.42461847134
82116.40370535071
68840.05175364809
81987.77271842308
68942.5368458172
81849.40710921674
69038.86635887632
81740.74506805379
81641.74342843037
69240.68788822289
81529.04426182638
69340.01591788977
81411.88415724671
69437.26563852413
81310.29713668325
69533.30900602668
69623.6378897196
81204.36062001238
69718.02113770132
81093.16214520723
69809.86913267082
80985.29497044568
80857.19704075631
80740.15444024614
80621.38328068185
80505.24879081402
70242.3117833868
80393.45382457461
70322.66853434162
80285.89889494989
70393.60282910672
80195.5164957817
70464.91171192154
80096.39754615814
70542.16232884889
80028.84050814155
70624.17740701057
79961.82896559824
70702.88706520927
79900.00425125148
70783.26430764486
79839.13630654209
79777.42204836574
79709.49796346642
71008.88729496325
71086.44890478913
79645.0047294104
79557.21925003175
79468.59521114285
79361.00447567912
79248.79784579836
71438.76118830871
79118.43739348534
71504.3315135607
78994.71224744148
71577.68740057053
78862.04287494431
71640.51229872381
78728.21270013804
71698.36434868923
78593.45858320784
71759.8723241941
78461.29291032472
71817.91646846062
78330.14723324764
71879.7582779826
78199.92177206422
71939.953703194
78072.804144244
72001.37090719563
77941.03708082781
72061.50650430645
77817.31495840497
72122.76192701051
77696.17299500223
72178.65869069468
77579.11362646791
72233.31685160818
77472.85009191088
77374.47020326808
72357.15252252744
77287.32823760611
72415.3509885454
77200.42240406357
72468.8703597409
77122.59310181165
72577.99748835074
77048.07360982113
76977.18560183326
72622.91529684956
76909.42963521001
72671.28967479599
76849.99020828439
76848.92780753379
72720.69131157582
76789.39286364695
72769.37383781631
76726.29922579163
72816.23742265251
76667.51570001735
72863.19905460751
76605.97891794232
76555.06769044061
72958.82475907238
76491.70537537598
73001.11091647617
76432.74485190556
73045.71090016818
76352.81948705217
73092.52606210257
76269.09488049848
73142.25997207747
76186.3448647616
73192.22304212787
76074.16101376247
75972.65213612346
75864.19472455968
73329.83481486788
75759.52836672861
75648.68092271821
73371.25172499979
73411.62874925105
75552.52015319868
75465.87443124266
73457.62915776133
75393.83293538293
73502.49730030187
75336.20603575498
75274.94658911323
73590.4540762752
75226.83137055032
73625.79884165006
75169.42766128307
73661.37510497998
75107.47394746498
75041.12638765755
73735.01431741654
74960.58593910882
73765.94267793844
74856.40089564731
74731.35993028054
73803.51521415373
74730.20241367284
73842.69728991564
74597.96137738996
73877.59321750053
74444.32680585282
73914.04217546814
74300.27612791852
74154.63650553527
73951.58408971134
74017.2892069409
73990.40035495434
73890.47337055489
74027.55404862543
73782.81821173133
74069.46691748862
73691.90296505165
74104.72795169368
73614.80143794027
74138.23075614953
73552.41366136147
74182.11531108842
73495.88689348493
74215.80792967767
73444.26754900874
73395.09331467011
73347.49002259264
73297.77550444363
73241.26737477948
74347.17553448289
73177.35613778846
74370.36869483494
73115.142499594
74402.7128395482
73053.59277924402
74433.03237633313
73000.94335362838
72935.46268407299
74462.36097563319
72887.17640940075
74493.13259895562
72842.44207639189
74520.39432755006
72807.69230116147
74547.46584508567
72778.60057921639
74576.15936305372
72747.45820759365
74607.15894210961
72724.13641146841
74635.96645808307
72697.48463107583
72663.25616913846
72631.77059418969
72587.0807367184
74724.64313024652
72532.43110613603
74745.50624923296
72463.53583990484
74772.44478711425
72380.85136946868
72293.6514021052
74798.88634301032
72191.9078688642
74830.19825172699
72100.15573388754
74853.50003885414
72006.73465883972
74878.19822091841
71922.26543593814
74903.32186591566
71852.59935500886
71805.46944129889
71847.58313826445
71769.71672577009
74954.90739472282
71746.34213497381
74975.61192661473
71723.08493125197
74996.96072583777
71694.59830599255
71660.77447512394
71613.45815037903
75042.70055873769
71546.99969204114
75061.64531772108
71448.02846776105
75083.11629885336
71315.81751412511
75104.35825534572
71168.3038667111
71011.43746898146
70855.49096472871
75150.31122611239
70707.7881324347
75170.00592028518
70575.29587637364
70821.87429667466
75194.31779541007
70616.82439932336
70472.70160075297
70415.01106017773
70414.16944467195
70454.17712573426
70522.70341931717
70599.93628333314
70696.30277845822
70791.02197707753
75320.30360440977
70874.98626196793
75339.09511200211
70939.46992832299
75360.48317178538
70978.96761655365
70988.13076116356
75382.76638450178
70983.94280507008
75401.62378258204
70955.47654286493
75422.24993252695
70935.06718257983
70914.43771742952
75460.45279006347
70898.74108144869
70910.02842462296
75481.13522667935
70924.18185220681
75498.11248144593
70986.5312517088
71074.91139070291
75518.89505103367
71173.54791775935
75539.64720924498
71278.431978733
75556.82637757901
71395.45658923809
71516.43258616862
71625.01449617776
75592.91134182572
71730.9007980388
75610.14160122276
71796.55412800578
71869.73909046367
75627.70772223272
71920.0103476541
75644.89661220672
71962.81200148014
75663.11226266033
72005.24466903956
72053.32866724006
75682.75619068209
72108.50482377088
75701.57740922902
72153.13255521872
75718.28118307672
72239.60314957591
72331.17837284872
75738.46844964672
72432.20756179604
75755.39961847474
72528.46478931847
75771.70766881949
72640.88096667931
72755.29160180586
75788.9888587919
72839.37265980057
72932.47204578228
75822.18599584755
73019.00903045377
73111.36313619075
75837.38540434175
73188.53618446169
75850.0598823639
73264.97606281187
73322.37467900135
75862.65597842629
73348.52821358913
73347.80875270444
73303.88899800606
73269.99380993572
75907.19230804453
73186.51984054428
75923.83890796627
73094.45397442827
75938.3135007954
73003.34334741658
72935.32405606638
75951.68807185558
72874.23051774461
72855.2275804712
72836.15570956976
75974.34524273226
72841.47946433956
75990.37854105092
72862.49485667091
76006.78068227536
72887.29223964699
72892.70755625736
72923.55260431576
76019.53166193028
72978.58362829583
76033.12884706809
73014.69571394933
73059.85910271695
73101.62032040252
73148.69715248274
76070.14040419133
73210.92346842751
73291.94143665886
76088.40191240329
73390.21118002593
73504.16946938519
73624.43920629594
73741.42728551863
73842.55214448436
76132.37067844051
73922.25809362326
76149.11195127582
73979.19337769454
74009.10390303504
76163.13573196412
74009.67657520081
76175.26903060585
73994.51981709657
76186.95299323006
73971.71519148696
73958.15095360744
73959.07297106007
73985.80001892532
74044.02239866658
74148.91262373574
74291.96749411924
74460.47352340179
74629.55517734915
76254.30876982989
74785.47900429704
76275.56980948012
74915.22152328139
76286.68454154256
75024.01401314407
75095.25075420024
75138.80603262928
75158.3524434608
75162.50371220487
75164.87135182974
75169.85540340366
75194.96152709569
75238.06028844972
75309.42845247388
76379.29555479008
75405.02469432481
76399.1947876933
75517.96947162143
76419.70283960081
75639.95152603126
75763.96096081716
76438.09831177797
75865.84950085047
75960.58458021752
76038.53607402658
76486.78089215595
76080.2207327675
76081.53459804408
76515.4431411914
76070.84695985583
76071.93893896266
76541.41849543589
76036.89644200847
76036.23677566789
76559.71436120337
75987.50446201663
75939.43423073324
76576.42123687938
75899.32379380023
76598.1866137308
75891.03838146398
76626.96825117678
75930.71483281346
76652.13985541752
75996.29819467457
76096.26284628708
76681.43845033458
76234.72523920299
76227.40509571321
76397.37862598208
76561.22772623073
76779.94303353981
76741.71711536171
76813.18935877379
76861.89820238197
76970.94919866296
76846.15495908349
77057.43417017141
76891.10294110977
76889.88461683798
77072.86875828485
76967.33747959357
77016.23916420795
77015.39019046549
77001.35882755827
77005.84576914186
77065.1530646262
77017.37332903495
77104.31905906189
77044.1020170298
77051.26422245795
77126.13611753774
77117.12176961442
77303.73614531543
77221.67436256501
77180.21705611268
77175.87919817574
77938.53548143368
77465.2234395561
76631.12394075823
77371.22265358109
76385.94157486303
77563.26563508766
76319.55332954312
75964.56673076401
75970.93531336589
77721.95465549924
75399.83669325388
76092.83335274413
77973.39485720228
74242.70294556356
78198.97583877902
68010.72832986139
76955.74653669637
77858.75503984843
76931.82289306552
75401.92372397332
76835.60833651909
76013.54205484157
53149.37646244804
50709.64017993402
46379.52576445389
46028.01374647857
45527.83014461998
44939.09537899199
44833.63409411967
45322.23999081367
45588.09780778263
45275.11199920815
46135.42713533529
43657.717983877
24712.73352372528
17656.73784727264
17277.35468405227
18330.6178235325
59891.80258252192
56048.18835116255
64452.09422284403
90644.81069490581
89259.7411608914
88973.23094347454
86830.33917761492
87067.16256045623
86592.45788782676
86363.03436673757
85427.11153492572
84565.71020981073
84398.34799860971
84234.59341267777
83405.60276116514
82487.27411173237
82203.66630015631
82335.21789413289
81478.20650832725
80917.99401325523
80790.79767665693
80154.68293544413
79574.2491765232
79148.00298841717
79017.0430307916
78887.11103731791
77976.85213361346
77847.47778139995
77727.10621341196
77145.40965471332
77226.79981309973
76818.05351570254
76760.68216839625
76711.64349085338
76403.06038099404
75725.35625021337
75339.82110302793
75154.40508257714
74641.36090126655
74497.99531570714
73634.2058589646
73703.27939035316
73572.05711436919
73515.38269916781
73011.00420861194
72946.41940124395
72903.59063519281
72869.78135982342
72834.09572554418
72800.09063962645
72776.02480630334
72260.93192636002
71936.12298959421
71810.46085812119
71780.38078654824
71745.33706472101
71488.82421241057
71366.99965005454
70563.17391865817
70862.35655141651
70780.27465276849
71029.3712355735
71006.78486966615
71042.32651142964
71078.97394300821
71162.52295050197
71250.6674511077
71345.92128111805
71919.55416409377
71851.0387467715
71962.24920963425
72010.04105730493
72237.99392645912
72597.58887867523
72972.88841035604
73046.88370314275
73275.06037185442
73328.52949313227
73197.40522743063
73266.24011057291
72897.77046040318
72980.18510821064
73038.63700193504
73446.49813680269
73553.30419576696
73659.95662158281
73765.20886649079
73856.64365789302
73930.10939854721
73985.4760963977
74025.24626510228
74063.21478278779
74127.00577636561
74229.9492545828
75084.87011800936
75018.9439229321
75130.88854762771
75227.01506734891
75953.30011271105
75975.05373100383
76015.28827800002
76434.41126524795
76731.71763708671
76760.77497478957
77132.04684680959
76851.71859274944
76812.5955722739
76779.56829885411
76748.54578614161
76712.80675067955
76680.66100678655
76653.50675356084
76625.25456294537
76603.08024799812
76583.98938916269
76474.41514296542
76458.98771671757
76359.88321746704
76347.19387438147
76333.84463436621
76318.49877628068
76306.13441632786
76292.30819644405
76231.13307288957
76222.42815943593
76211.97411879788
76200.643414388
76190.97561819173
76114.79563819288
76105.41979107687
76092.66102305094
76050.02673904707
76038.75769632039
75950.18376485181
75937.49207194567
75876.23913583317
75862.06430657597
75787.94388734063
75569.9661750419
75440.06004036464
75296.37656481384
75271.71381067418
75247.02407076748
75223.56912071077
75204.83748691014
75120.40322284334
75013.40907229899
74922.67291247725
74795.12281974888
74688.19877824381
74656.72457686253
74273.33080302569
74229.63346593874
74134.29151492585
74095.704076654
74059.34332189505
74022.76726653626
73704.14878158564
73547.17694828668
73278.72437669495
73228.25081854269
72911.29999656921
72520.34438591695
72276.3481071991
71408.0560836136
71319.64492127145
71238.52464949267
71159.3380279039
70903.03017792948
70817.88833151165
70196.98957427115
70090.96244964315
69995.58485227264
69901.92047868983
69800.02733666963
69167.17348320791
68737.41300685934
68622.96183047956
68510.86348924862
68405.38981940804
68288.38306730591
68170.60745190863
67404.73293500728
66722.27767624872
63979.90508671428
63789.65840437138
62590.23920095278
61678.69548678659
61444.72981416662
61208.76593213984
60265.97045919431
60034.59366197371
58610.80074570567
57243.1708065718
56948.68050953562
56646.7824783424
56337.175319343
56031.78806339435
54569.61082119066
54123.49165121221
53652.57785100696
53134.72188821023
52613.91396124757
52048.96014540758
51431.35389824861
50740.38118593532
49957.15967407666
49114.77979188052
48264.766702334
47502.8499845274
46866.63698057095
46502.93861953228
46110.82017983208
45595.08962396793
45099.40337651246
44770.34618275132
44679.34958737443
44753.83779725172
44250.68427188
45651.21928954413
46513.50866693441
28966.17524385726
17150.32796622159
16511.5085113002
16650.87825369731
16912.55645807286
17352.54594729833
18197.89975649075
19488.17399217144
21574.98280967708
25400.60031897591
32517.46563065613
43061.33212727473
53811.3609151332
57033.32215152249
76767.0942585
85233.18042980634
91905.83147759672
96283.38360031361
99378.13169940327
103087.5045212071
103762.2573691079
103890.3345448917
103680.0319859037
103233.9695028384
102636.8341941484
101952.2650463036
101219.9638159706
100470.4183011813
99725.59123963468
98992.6309718118
98287.70651217068
97587.66081593321
96899.93673370902
96186.7040112025
95508.01093038342
94894.33666588005
94356.32870195688
93890.79999392646
93481.71716814663
93068.76682509101
92658.90377400126
92246.81059818382
91838.44340948225
91436.16962611314
90988.61846176183
90589.26517111884
90253.62683841199
89884.89809000291
89556.35136001706
89200.02414460173
88918.77767470169
88709.88672353784
88467.36992833004
88231.19647790892
88002.41235359714
87776.87159735824
87540.62348267998
87299.46976777424
87043.18054260325
86797.65878056576
86559.62474017525
86325.34086363167
86141.81259302268
85937.52352275007
85749.73318902844
85579.11630345554
85389.8749430326
85274.07249207013
85134.87275193768
84994.315680196
84853.83095696552
84707.51114536762
84531.53983275002
84366.98634353607
84203.06491520484
84067.46474664412
83898.05361212106
83730.27701400942
83562.75504643365
83361.66783110728
83236.85926163384
83080.72665360208
82925.37407487312
82772.42217206312
82623.74529596465
82426.70848899655
82279.41486376138
82135.63416200592
81936.92436168592
82063.78729047345
81810.35191156689
81698.97899607795
81579.22113681951
81473.984998168
81257.55174865718
81359.02633999275
81137.77199022374
81023.54203979236
80915.87346058736
80793.06273768956
80675.37492811687
80559.84634561132
80449.01525364834
80339.73745725793
80236.47961254798
80150.45414200694
79991.83929479535
80059.84878072643
79914.71618158533
79849.20345858099
79783.85948914969
79715.56353976425
79641.9934657525
79573.59436578104
79477.53352503695
79375.59547285631
79259.80287791893
79141.80612536108
79015.1645218965
78885.11033474305
78754.77316906513
78621.6762526666
78489.51861912161
78358.53354707683
78229.10116214113
78097.92218825116
77980.74296109121
77855.16470360802
77735.83567542485
77609.86001991051
77501.82718343177
77401.22396540908
77308.77481426702
77241.77993179488
77159.02220985804
77067.567130294
76992.14207729376
76923.77343587157
76861.20222785932
76823.49873183046
76756.78872137237
76697.50886274491
76658.08405711352
76605.60539221298
76540.00045963089
76471.31579889158
76377.70168438685
76313.88374580861
76227.95838095424
76126.31719750617
76026.78381428718
75921.58529811547
75818.50169027167
75690.3367102099
75625.24696948352
75540.75572588202
75465.23347258237
75395.67904652959
75311.27770999949
75217.72686875102
75273.29415443608
75131.328842723
75075.45963820028
74990.53289359502
74886.25026177923
74754.86125524891
74621.89090339695
74764.76544288179
74476.62280375707
74361.31606007867
74224.43037453921
74096.24999445566
73977.66197277392
73783.04557458118
73871.08401430784
73670.92301809625
73600.80463435185
73540.61533004841
73485.28418966425
73460.90432466914
73408.85537568167
73356.04745365882
73297.4590683506
73233.67941351727
73172.43028663719
73111.19330734108
73051.62222349073
72978.70688169399
72918.46508525379
72874.11969179382
72838.82724902916
72805.75136183051
72772.30475238747
72748.3005012072
72742.78119249543
72706.47453283526
72672.90360622494
72624.95475782319
72570.64679414898
72504.99344443134
72426.50541092936
72337.93873765375
72231.68948831059
72165.5098369411
72078.88419415602
71998.29158625376
71815.39396670382
71879.34997309967
71782.3693769846
71754.6251757326
71721.9681098747
71705.3764426768
71653.91866271901
71581.93930493043
71470.05987216118
71345.05067414969
71233.55833022925
71092.20570416821
70952.70742715496
70657.10366917487
70563.26957164284
70707.06131755192
70507.85656653442
70554.47148187294
70582.66544620502
70634.15368978448
70664.5594495448
70741.37204948372
70697.35150694949
70825.87877225573
70929.10621679458
70984.41032009825
71022.62537581184
71037.8507223558
71030.00076117426
70994.10529694264
70969.66646755204
70991.01996088962
70982.16059613023
70993.61129728481
70989.38949509761
71031.63477509448
71114.7170261358
71205.58761434004
71304.06620660269
71454.74771949511
71568.95694981748
71665.3958961582
71745.50482975008
71822.99040977513
71876.72290537119
71930.66150866808
71976.0580107563
72057.90361335338
72113.98078017523
72158.01157741141
72196.54462677734
72399.50186024778
72298.74782851407
72475.21082318699
72561.24040954671
72681.09435694251
72788.64796112146
72874.26614475364
72950.8051146448
73029.95576080756
73137.14652949526
73213.15906171301
73270.84404872371
73328.73076460167
73351.89251926166
73358.09549438249
73334.01270918352
73272.18464094798
73216.90501134613
73130.76172122343
73048.93559033974
72997.44361746393
72959.63695269257
72890.14047682165
72912.81898819981
72917.08831670866
72935.95816569086
72969.89866296893
72963.98082162738
73021.67768045249
73075.40393970275
73123.68205752656
73166.31770681251
73213.65341799591
73282.67421931158
73320.50209179017
73426.20539491462
73361.42013262201
73531.97207250727
73645.24260473209
73753.97110145468
73848.6950904203
73925.1128707052
73981.89208722825
74020.03244630212
74031.20756152828
74025.3943705196
74014.91776776539
74011.8949332164
74000.05242282103
74031.02106472271
74090.32297095035
74190.8431177493
74358.38268251423
74501.79217944251
74650.74688455774
74784.7388216088
74923.13142395641
75015.14071988157
74911.22421258583
75091.60678497663
75140.70139693074
75156.95149140095
75173.40992923798
75187.80641765732
75201.59057975355
75219.02991606938
75282.34275131556
75349.84035264629
75440.05830321094
75544.21983552564
75652.85374745139
75865.51948273607
75756.96962975494
75951.79691649243
76065.35959964241
76018.81262203524
76060.20292216756
76039.3600490976
76066.89747732518
76004.40874079721
75966.50054488126
75960.76364020217
75960.80455969222
75994.5541346851
76059.75180458844
76157.63280976981
76264.79244988173
76411.80607083738
76569.27979592899
76723.55065888693
76839.53909089461
76940.87051242197
77006.55939745817
77030.82032653138
77017.06507779361
77015.10920674099
77020.14509112919
77039.53223919701
77071.76803969985
77133.88604483705
77179.47766477321
77336.92757286552
77521.08117505124
77859.09942493081
77755.96190822897
75733.62428247604
76500.34220736638
77449.46923930936
77176.25828431569
77135.73954595519
77013.11137735748
76982.08053686467
76961.60570590703
76906.75605630691
76868.03572661142
76830.15460672529
76802.27589398557
76774.87750488067
76741.18131871415
76708.24057343219
76672.92056779435
76647.96405376776
76618.55409578195
76587.35516204714
76566.45747021257
76547.88082296298
76523.30174672671
76518.31107946577
76484.08036449421
76473.3243749083
76453.78981687798
76440.02679250919
76434.01087411672
76411.52422027284
76390.59180862404
76365.01231566524
76360.73858488139
76353.98984164663
76343.08490426383
76331.15254783955
76313.34135890336
76276.75543483272
76265.48133514532
76251.50205072784
76249.77116467257
76241.36333003806
76231.99531530747
76218.82120357877
76205.74346145176
76179.05560486496
76168.14667020811
76156.48916592634
76142.1455327632
76130.4051137397
76123.50347564725
76116.11151846817
76105.21422743423
76081.09113096444
76067.07900710167
76060.62645922604
76047.9960671873
76022.83368430292
76009.34007592691
75995.55851892056
75976.58693508134
75964.43112926715
75955.78228147578
75945.45121758791
75924.40061139574
75909.39171490855
75895.70612580171
75886.15794922225
75870.15820066423
75846.78237382336
75831.85230255369
75817.80445104133
75803.59558131571
75795.10731779225
75770.95657863311
75755.12439231992
75739.21137011153
75722.25204390472
75705.03333294738
75687.86537261869
75670.09134646977
75652.28728195465
75634.83175107057
75617.18906282997
75599.42024196831
75584.96791381483
75560.62188899917
75552.12020993356
75535.22810781948
75516.34117719829
75495.64050815458
75477.94062283957
75446.58316463698
75428.20524754943
75418.95951824653
75398.39036859595
75379.29537080032
75357.11625266854
75335.01154339267
75313.6786711733
75284.82062185449
75271.34678195171
75254.47383918246
75243.59597630077
75221.18780336005
75185.63321316398
75161.78037194813
75139.05698789938
75124.94128546816
75095.46871451091
75074.51945747637
75052.92039220141
75031.08433813634
75011.23787134477
74988.35339984002
74966.1084852745
74942.55815682601
74918.72002799917
74894.3223516131
74869.7331608899
74844.68686164188
74817.58367565954
74790.62952979081
74764.12733067236
74737.49367278806
74712.28673290258
74684.95108109449
74656.88969529618
74628.09668331129
74597.19439967295
74566.8003254959
74538.63252047579
74511.83242035864
74484.81151067989
74455.23321602543
74423.63700754996
74393.69889331213
74364.66012623902
74339.32265468917
74311.91621616008
74305.07163690825
74275.75836595497
74244.02760471235
74199.05218123176
74165.35386063931
74145.90085303753
74104.97008300645
74067.32860465796
74030.09612513879
73985.37429141311
73947.26102366188
73909.84903647508
73874.23154554682
73840.14511718789
73803.66489715318
73767.5794242571
73733.55331285755
73691.41286964777
73663.1030002014
73624.6091658411
73584.47771565564
73530.81532570117
73505.2839292874
73465.17493282752
73421.75347784038
73375.76713443678
73317.14935892675
73278.42763947659
73244.83189704397
73177.78191391379
73134.63875906621
73086.88620347611
73039.07819908339
72995.31982001243
72953.00716403015
72914.08067250719
72864.36940876026
72819.70337565124
72776.89339053135
72730.96780005559
72684.1084234352
72631.07942392146
72560.57880401841
72516.45430681446
72461.78994588161
72401.30179458257
72337.71637674001
72313.52156460981
72217.95414183395
72165.52023042337
72112.30788479661
72054.75521776213
71995.70895594632
71935.03351897016
71875.15233522696
71815.51857402989
71758.33961567798
71703.34183414908
71656.49728880299
71604.70758910156
71546.85181220055
71483.6542806119
71312.92318691179
71263.28262140282
71216.71219222312
71154.32630814813
71078.21534593253
70992.78261524423
70950.72826607323
70887.6625224755
70755.3559832864
70680.88415842081
70615.63330595828
70541.54782845661
70473.51883307709
70409.18224480622
70350.72009221584
70279.1193286777
70100.50233316302
70035.8209519909
69976.22849115125
69900.77332597668
69818.12114464265
69687.54979226358
69592.91535462007
69508.81158976887
69429.95065150938
69343.50137491626
69253.76932148896
69123.65550628497
69067.80112792106
68966.32856305034
68851.25878040463
68700.29848336741
68594.93510423601
68495.43262152115
68402.40216651812
68294.36821758846
68190.55083787206
68050.70260392447
67891.61434834337
67772.1712153827
67657.21988345707
67533.59938380477
67444.77021435233
67272.50205366497
67142.04231309264
67007.25559866584
66863.7065419392
66753.60283350463
66577.26757543329
66433.07514101473
66284.43639728159
66144.92683178518
66000.53233667984
65857.41463715081
65723.24368565717
65589.91053188026
65451.90928537188
65314.31944510241
65173.64209038342
65026.01880658907
64872.04029091518
64707.63814416942
64530.79799693178
64346.7940452127
64170.0247034924
63952.49978922441
63777.94948969253
63592.91816951123
63398.34127960528
63191.87213987023
62995.39742966028
62792.92426896222
62586.88472690208
62374.68830649044
62142.46037136902
61908.41329464563
61665.8021507704
61421.1548580114
61184.5534587627
60970.46005402892
60732.86566570269
60492.40707444031
60262.10057764562
60035.32434771281
59816.96436669611
59600.25061531069
59371.65305064204
59126.36836752153
58862.26343877384
58612.93135041036
58333.61550371638
58059.15946618945
57786.00977955833
57505.48228582253
57205.35480167837
56894.93519121226
56589.32254822234
56302.06134826322
56013.35978779575
55699.64241517724
55334.55344129494
54961.43591398999
54549.67946004841
54086.12065913226
53630.83289247405
53151.30217870288
52588.74158895688
52011.53093203151
51413.93224013741
50725.81712399381
50009.63554855717
49186.83696818083
48371.1466931584
47614.52289892497
46966.48918130853
46421.60153809634
46034.83130592611
45535.71058745505
45110.02783869698
44814.21971387756
44701.69315633675
44595.45005944411
46611.10259530241
33201.61413299621
17353.97111968949
16281.00438348948
16269.38634942801
16464.89703568328
16762.46981341331
17450.74774890831
18536.88957859061
20216.20209601419
23981.24939715887
29052.36061143971
37009.10950758901
52220.67381699489
55275.94389720012
56579.92423697391
59942.02191694143
53689.45187219299
74564.90122835415
54167.28749848769
84611.62536364126
54612.33619785745
55021.59843490119
91913.47697668521
55385.25654182319
96409.47075508488
55736.72763551825
101907.0186400211
103333.2255871315
56065.81870829791
103944.8971515481
56363.70359270105
103994.7075679928
56665.1637596454
103746.9153442307
56966.21641021683
103261.6143937117
57245.69171946309
57529.84094704501
102631.3064528238
57800.22309572286
101921.9425957012
58078.08044297971
101172.6826256425
58353.55817732384
100411.0522129146
99658.42768286375
58632.31830225622
58894.18823749464
98919.58708303198
59138.35976249509
98215.32131856869
59372.41156915756
97517.14941027142
59594.23640052792
96832.99804189851
59807.31355963903
96093.733532896
95396.74613262324
60033.16867848943
94778.7296960606
60257.95722788561
60494.28581281505
94245.97609776635
60732.19383794087
93799.42264583077
60971.57202327477
93416.89090454343
93011.53505736528
61214.31880614133
92605.49808228482
61449.13372061495
92195.62616506951
61683.65797066112
61918.13134387669
91789.31728460261
62155.43649142991
91386.45691918957
62379.17337115265
90947.57648034993
90537.77274416204
62592.76336945973
62801.40713041596