/*--------------------------------*- C++ -*----------------------------------*\
| =========                 |                                                 |
| \\      /  F ield         | OpenFOAM: The Open Source CFD Toolbox           |
|  \\    /   O peration     | Version:  v1912                                 |
|   \\  /    A nd           | Website:  www.openfoam.com                      |
|    \\/     M anipulation  |                                                 |
\*---------------------------------------------------------------------------*/
FoamFile
{
    version     2.0;
    format      ascii;
    class       volScalarField;
    location    "2000";
    object      rDeltaTau;
}
// * * * * * * * * * * * * * * * * * * * * * * * * * * * * * * * * * * * * * //

dimensions      [0 0 -1 0 0 0 0];


internalField   nonuniform List<scalar> 
104311
(
86.31081137104249
85.14317313621441
84.58654092708176
118.1494578436533
119.8238190708924
121.815432066115
115.7489396828495
119.7522295585645
115.719093649104
119.200636405598
118.6389585576709
121.58464913371
86.83120458173043
118.7685316782415
88.56782867336504
119.6955005830819
129.0266023378861
84.12156623039336
132.0183154643936
120.1463113087982
130.8130078326143
129.3410112685659
119.370815610326
128.6895467894161
119.004902647154
119.1697312412921
119.3134536701111
119.3242527356891
124.1795694410428
123.8197263101216
119.2895379047801
123.4762560936973
123.1430966599638
119.2764858230821
122.819321845473
119.253709353012
122.2545220230346
119.2347998878053
121.9630056456606
119.2300651513671
121.6114117597881
119.2042853841123
119.1582918876793
119.0976611935332
119.6968708145444
119.413092712858
119.0954271594673
119.0997256169842
119.1139416963025
119.0988526493531
119.0627863524046
119.0228646988196
117.732124254846
118.9508461281425
117.5385878679841
118.9031085435729
117.3698290870986
117.2277625701091
118.8862670277532
118.8703079163843
117.0895134097718
117.0291337714432
118.8511051640645
116.9762004470829
118.8303537244117
116.9392812014504
118.8081481283762
116.9226834898319
118.7826803817018
83.16680725279367
118.7639690097187
116.990390088484
118.7425682426693
117.0073526821468
117.0239737621497
118.7160462963971
118.691843651149
118.662909772142
117.0207429053299
118.6343441167684
117.008250082238
118.6061880605035
116.9874886378647
118.5770212868447
118.5511505923707
116.9486443776894
116.9235891478513
118.5268566109472
116.9001222282441
118.5061774834572
116.874391714274
118.4897901493319
116.8494906692946
118.4760270249606
118.457426585554
118.4410890510087
118.4214212205508
116.829043172404
118.3995413444297
116.7981673731317
116.7670730754656
118.3792158199729
116.7418838084398
118.3598843101766
116.7286150212037
118.3395714602324
116.7309359348661
118.3226987040691
116.7057522761881
118.3021617506557
116.7620637142345
118.2848697606461
116.8001144754782
118.2656925686139
116.8282134667069
118.2474767340219
116.85327289097
118.23006733233
116.8783513899721
118.2154728497918
116.9060651692068
118.1990473410141
116.928144848048
118.1854039102769
116.9648958941524
118.1704666062953
116.9595791076377
118.153659063383
116.960354072124
118.137042960018
116.956654284878
118.12205331625
118.1098058601276
116.9700766200297
116.9534752395246
118.0927250401497
116.9346950635071
118.0760800822377
116.9119097676463
118.0585630129168
116.8920304268875
118.0420860132946
116.8590129136089
118.0264555067397
118.0136497784967
116.8217921928778
117.9957530489598
116.7889569743458
117.9804944088769
117.9635916707701
116.6780497810562
117.9455442208265
116.6425351627088
117.9324196833206
116.5989511317428
117.8966910095316
117.8882630653788
116.632898152739
117.879612919831
116.6258235108203
117.8660143989357
116.62151718465
117.8552892174217
116.6183806724706
116.6128143490647
117.8434125146619
116.6122546750624
117.8307442618391
116.5974125453032
117.8212451823486
117.8066434146669
117.7933087528366
117.7803517219706
117.7679395464089
116.5247882786178
117.7564387172344
116.5014918571769
117.7448228941264
116.4788587453076
117.7370948397908
116.468498564852
117.7214286902511
116.466211729658
117.7096137977255
116.4687339453857
117.6966300219734
116.4756896760421
117.6843987497934
116.4920065135263
117.6722562599043
117.6597509904434
117.6463474944658
116.5074609304626
116.5115641648627
117.6358838608505
117.6206257427882
117.6096277082461
117.5987704218958
117.5902430327272
116.4829159325057
117.5760002243321
116.4693907111869
117.5634757036923
116.4467305053271
117.5490336458372
116.4257575542996
117.5358749126844
116.4089669247577
117.5234778144781
116.3969804500385
117.5116814978143
116.3854465873367
117.4988727974975
116.3754840765698
117.4850366977497
116.3667938480603
117.4724447425654
116.3592133300455
117.4556089849215
116.3515867098286
117.4392942373061
116.3440163625231
117.4224319493084
116.3387770431975
117.407901292086
116.3498404566799
117.3948030259051
117.380913781396
116.3608352870221
117.3689747772916
116.3493970004013
117.3529597482341
116.3531931684514
117.3364156277477
81.43387060333296
117.3231902849227
117.3102894700184
116.3511117445241
117.2976588435137
116.3440691431879
114.9304804022824
117.2290900103281
116.3139454921749
117.2625858675343
116.2904395931351
117.2545402615441
116.278566112317
117.247417744376
116.2865638786944
117.182216181229
117.1989307967262
116.2990101402587
117.2022180520285
116.2927565141869
117.1986918572972
116.2711502091965
117.1938981207087
116.2552288121777
117.1320435916676
116.2480687603216
117.1512184687841
116.259353955221
117.1534199637828
117.1528293242851
117.1476927278601
81.38161473009578
117.1422660481928
117.1301467199534
116.2793355804253
116.2765635495137
117.1205338234642
117.1106420207996
116.254991849749
117.0992372860978
116.2534235443894
117.0899228704706
117.0739453293513
116.254318243912
117.0627754284177
116.2441425778863
117.0521486268072
116.2412154860499
117.0382447204498
117.0267993300527
116.240365885914
117.0159959557489
116.2317845074356
117.0062765632416
114.6323280372041
116.2127160631802
116.9249745979482
116.1981151343753
116.9683256052316
116.1875346448889
116.9639789891416
116.1795617477544
116.9555448861365
116.9463264758862
116.1751886229642
116.936834248602
116.1827168704235
116.925319304802
116.1741695476777
116.9118661357765
116.1900907189185
116.8970978688495
116.1850633964738
116.8786420247442
116.1665246629753
116.8610364107446
116.1530906737207
116.8432755608175
116.152011560585
116.8266950628251
116.8148955384354
116.8055285631999
116.797712644556
116.7901579783053
116.1394232435763
116.7819394177722
116.143141542396
116.7747244905487
116.1296647007833
116.7677889184196
116.1125071435024
116.7644667427994
116.7543161154033
116.0982959950247
116.7474338262096
116.0890879310805
116.7409540232585
116.0822201130437
116.7358354426085
116.0762316168318
116.7315567049998
116.0710067614202
116.7271419395077
116.0667031387251
116.7242094991375
116.0675910234359
116.7241395683123
116.7243811510784
116.7255495932986
116.7236426557805
116.0711673207044
116.7211552464143
116.0707526347228
116.7176185454186
116.056900478209
116.711437072418
116.7058473406254
116.0392944895231
116.6921911628617
116.0255978963266
116.6824778058256
116.0140533500675
116.6725678832465
116.0062094109434
116.6625336766565
116.0071106326518
116.6506741265442
116.6395014572415
81.65470993140816
116.6230330564628
116.0037059794049
116.6070256103855
116.0020676081032
116.5907525422733
116.0001949950023
116.5746983022674
116.5638559256268
116.5538252616991
115.9914296059502
116.5464144363836
115.9894040994957
116.534687744818
115.9831186684896
116.5213462073469
115.983016856634
116.5107250260511
116.5008590180984
116.4901906949758
115.9798219730782
116.4793787924968
115.9787804086237
116.4632228804158
81.55412905173861
115.9768864591442
81.53128857050883
116.4467569608876
116.4283604735028
116.4143571540648
116.4039569319346
116.3972842245361
116.3861414934401
116.3775693806009
116.3686200205065
115.9644827008948
116.3667893421283
115.9669479960147
116.368792725354
115.9602795423033
116.373637037093
116.3766545001024
115.9505441726672
116.3803715549408
115.941368330364
116.3752087675521
115.9376758870089
116.371708031384
116.3727651283874
81.1650285066419
116.3752084705788
116.3809159620807
115.9341478330881
116.3775815509511
115.9343600832436
116.3785623574307
116.3832429766857
115.9263686833061
116.3884803637006
115.9174711583209
116.3948986619193
115.9154652978719
116.4096530558953
116.427195517285
116.4420311694125
115.9168910068697
116.4605065949063
115.9213240086483
116.4687994164344
116.4810534417835
115.9210412139069
116.4900090627656
115.9201748974971
116.4981733877939
115.9206116000045
116.5105373797202
116.5240847098329
115.9219244704698
116.5387413651617
115.922662397647
116.5414247933326
115.9205370734498
116.5531390568052
116.5635850372725
115.9165937102147
116.5755122796047
115.911855957167
116.5800830454112
115.9062940064327
116.5856102654165
116.5961478551141
115.9005937359223
116.6025442074205
116.6056356280089
115.9295039286988
116.6054452577456
116.6111533870347
115.9021193418601
116.6193792888737
115.8940974118344
116.6222149600335
116.6222160674281
115.895250686583
116.6213517829101
116.6146535572327
116.5992552150089
116.5836091410688
115.9089643566014
116.5573676258028
115.9149731358451
116.5347361143909
115.9156329908956
116.5127081509003
116.4935948006789
115.9117546371385
116.4758093189459
116.4617046716402
116.4516908923199
115.9215860441936
116.446733513497
115.9256338279409
116.4414187547148
115.9229816081356
114.1107800427854
116.3929956436411
116.4292145650741
115.9188067578515
116.4301126264712
115.9181949117785
116.425266606408
116.4231084609735
116.4191086977793
116.4134081308182
115.925420578908
116.4116256645826
116.4104705873187
115.9306826300844
116.4131621777389
116.4226265334579
116.436083374166
116.4499227484799
116.4613419670252
115.9323850406416
116.4695794736097
115.9361152390475
116.476758521349
116.4836392317326
115.9335687029766
116.4888398540101
115.9310434016346
116.4908687006635
115.9316196623713
116.489415338305
116.4902278996253
116.4919464227566
116.4997734254836
116.5134371544479
116.5336652314556
116.5592777144209
116.5848498171347
116.6058057848224
115.965749586942
116.6237614041015
115.9680511417486
116.6323760291935
115.9650820362125
116.6363433068582
116.636784793736
116.6339272866942
116.631109883753
116.6261619171938
116.619692063174
116.6163730374788
116.612918807717
116.6189316815532
116.6334258546315
116.0091431836359
116.6526593790366
116.0091630481883
116.6749784096066
116.0061552387319
116.6971591674389
116.7178338484729
116.0054085237114
116.7349106188791
116.7459264319299
116.7566222260152
81.23076619544963
116.762452155428
116.7638699333321
116.0328384437433
116.759516742418
81.75331819108914
116.0378346407223
81.74375522658869
116.7502116651687
116.0358556487105
116.7404056628477
116.7312109676016
116.0346231708003
116.7229237153091
116.0366280339993
116.7214113041547
116.0416678229801
116.7348196446731
116.0464123261028
116.7526583235198
116.7708054635486
116.0546277239275
114.5183028301791
116.8086688867827
116.8449819435482
116.8655795338865
117.7342698225522
116.8922850639144
120.0889552190033
116.9055549621282
116.9172205782456
122.4907343233834
116.9269860416231
124.940549009851
89.22786263665107
116.9227886320115
94.68932165291521
116.9027824823958
96.58310808597352
116.8868236731411
116.8708687561088
98.51477024769299
116.853456439829
100.4850656526469
98.51477024769299
116.8412249865607
88.88551460450456
119.6281998418497
104.5446623050138
104.5446623050138
122.0207638386867
87.14266137696526
149.3155216412646
108.7682666621364
107.7439197935964
124.4611791154605
150.8674991611402
126.9504026977697
147.9093129030787
145.009130297136
107.7439197935964
129.4894107517251
142.1658140167999
105.6312939152906
132.0791989667596
139.3782490360784
134.7207829460948
137.520606047675
101.5295020331513
137.4151986050167
99.53872748348162
98.21206840673851
97.58698772890355
96.28634157523383
84.86506860398322
85.82424183814808
87.31532778633279
87.63966148749159
88.00338951008779
88.42089822426325
88.8920180256479
89.52802517749214
90.10319264468684
90.55932160722072
91.58995380145633
92.43386123956427
90.33918524683234
83.45944308124801
85.12863194287297
81.02180828094508
82.72345055633953
84.05626149524596
83.8957702666699
83.15370631028131
83.08294873766503
83.0629482262532
82.92763888020191
82.93907775817769
82.91386826432161
82.89854886393238
82.83036762842109
82.75817110781652
82.74861853187923
82.73816003845978
82.68372855209839
82.61583270335771
82.59331461290633
82.60514922345442
82.52499497124795
82.48342582001121
82.47408943151872
82.42376193182636
82.35318380313608
82.32193882802635
82.31316966748341
82.3030579252823
82.23764577308923
82.22622284959616
82.21441656057117
82.15419142663036
82.1657749476895
82.1024988278655
82.09686562140416
82.09187872423563
82.05440645798032
82.0097703170743
81.97042038655815
81.94542427054371
81.89646974653438
81.89342642252964
81.82135021118184
81.83367694687566
81.80891478559806
81.7973057944871
81.74662899589956
81.74181029659933
81.7372734018152
81.73368957958657
81.73069378133684
81.72760274188926
81.72554956627253
81.70313162795824
81.67406308575976
81.64350216796788
81.63210842676969
81.62086790012162
81.59285413322579
81.58351293068895
81.51840809739991
81.47658025916994
81.4828462375399
81.48119343218312
81.4787423589358
81.48285475872477
81.48354147957646
81.48681865902853
81.4904856646473
81.49497949631646
81.55530157313645
81.54672180240725
81.56157193512567
81.56728826383457
81.59757114090291
81.62463807851553
81.64252895877594
81.64239566925133
81.65413713352355
81.65413790887627
81.60873366452036
81.62710690744719
81.5417543503266
81.5190060976207
81.51963488372715
81.50776686813738
81.51439342552203
81.52381535870126
81.53350512637076
81.54150039929002
81.54726796675151
81.55229444432952
81.56292839588615
81.56840854522328
81.57797533315464
81.59213821090908
81.66433833918205
81.66402922800569
81.66233762883775
81.64762834532806
81.74075488036263
81.73045171005624
81.73688946213268
81.81010952546424
105.6312939152906
103.5600920738143
102.4947669656998
87.47829670259908
85.76303598294028
84.08140782641203
82.43275277099218
81.26706218026186
81.26057770700638
81.25673560905311
81.25098352124708
81.24766161290619
81.24413295740348
81.22608974585037
81.22150614313708
81.21906653174928
81.21554338422737
81.20965762524854
81.20207332648515
81.19472010249116
81.19086503684208
81.18981211416239
81.1874740216026
81.18130322402082
81.17415694403276
81.16970792199535
81.16581405628409
81.1650558463315
81.16481323122224
81.15933268257979
81.15951658673585
81.15602574646444
81.15670167790755
81.14542242310198
81.14452830129744
81.20321141444813
81.15419118387652
81.17016108681696
81.18714718746769
81.19344252601985
81.19619719028846
81.19826102030949
81.19966149532058
81.19959799002011
81.20874588714685
81.21589862192629
81.24599990123636
81.25507395679131
81.26176742863123
81.31356787903334
81.32257593609401
81.33508129995742
81.3480613680164
81.35158129495704
81.34043393765238
81.37569436170989
81.38448406900478
81.39029452895163
81.40156173129652
81.40914974336306
81.45290037133957
81.45120989473911
81.53143674407727
81.53737038375436
81.55402145784035
81.57311455898724
81.54245289555344
81.55046810000452
81.57834409189385
81.59875508161866
81.61540992535299
81.62672603271146
81.63677149032841
81.63523713847582
81.70508374014165
81.7370873013801
81.77088311804499
81.79387300412925
81.80709229631549
81.81993344069207
81.88202245491071
81.87415452224369
81.77266920684427
81.79631587274039
81.88658592809743
81.9297461588335
81.93268436566365
81.93379729564832
81.88211498353263
81.86269768602442
82.00842637751751
82.56296522669639
82.67653467764734
82.76604035046404
82.88797545169196
83.12086960231898
84.04252169259983
84.2764062419167
84.5286103505578
86.56236997606288
85.14737004642022
85.39354180179444
85.59764972636887
87.54072667491104
85.99309961702804
86.21979358877152
86.4530582896583
86.69354218170922
86.94548972334073
89.06163434205945
89.39245471724142
89.76345730028955
90.18931618874852
90.66985838616085
91.31858568104198
91.90525649758058
92.37050803936513
93.42175287748546
94.28253846435555
92.14596895176899
90.33918524683234
88.56782867336504
86.83120458173043
85.12863194287297
82.64224444656398
82.66355936650307
82.70444100142886
82.76652049766007
82.92798130106054
83.47369915315139
84.61844252062988
85.73738672515088
84.37791956746632
85.29021677657842
83.84564619846429
83.06617907031129
83.15690090542235
85.48204541193697
83.57859564686252
83.3223982552762
83.43780454072439
83.53843314665477
83.54599421366012
83.52168829934882
83.51254976198517
83.49660260293699
83.4833629635969
83.48004789349169
83.46199794776381
83.42979517004881
83.38734402113168
83.38577984123648
83.39874296777485
83.38817823009387
83.36292607416507
83.33497455414347
83.28455007671226
83.25112615933763
83.23933441414781
83.22816049270678
83.21471550564496
83.20018619062793
83.18463873438704
84.83014339784955
84.81678043648694
83.13872236260016
83.12015277327535
83.10320706430593
84.74460771241834
84.72420719077826
83.04323449949725
83.02281310948257
83.00469950020971
82.98768984136083
82.97321115638262
82.96173741076407
82.95210103020666
84.59785931334125
84.58619165780595
84.57214562960804
84.55651984121103
82.88431775743285
82.87078261961669
82.85656038729599
82.84474676888675
84.48697498098952
82.81826047950413
82.80483338871724
82.79207940135481
82.77989004554772
82.76967158177581
84.41333452997286
84.40359090251681
84.39292323922898
82.72639207971956
82.71475815917313
82.70426301956161
82.69568784833797
84.33740312314036
82.67207442877039
82.65980968846344
82.6482731627067
82.63732931700677
82.62836326632417
84.26814935742486
84.25725220792351
84.24518090516446
82.57148925365726
82.58067852163413
82.54647348774881
82.54057258363858
82.53451610313846
84.17549487067291
82.50917005008176
82.51748563486269
82.50030025410344
82.4936493845446
84.13309433641143
84.1235712201491
82.46501744488616
82.45632694380289
82.44827453043652
82.44014160298951
82.43473073329618
84.07223717046288
82.40639891174509
82.41548962406034
82.39783507186053
82.3893333937292
82.38057771207967
82.37119312871367
82.36386691754164
84.0002474791988
82.34548342614525
82.33788159532034
82.33191106384997
83.96837760458688
83.95943306083308
83.94911908378795
82.29384471490272
82.2851647703713
82.27690546866906
82.26793733706106
82.25824986210975
82.2494334866383
83.88239868855101
83.87074730658809
83.85870489178259
82.20424278469248
82.19507191083012
82.1853472260759
82.17698802042449
83.8090904466433
83.79727525516297
82.14493157886433
82.13589895236439
82.12705550080543
82.07904638942004
83.74454880442282
83.73880293383225
83.73371629872034
82.04622723853579
82.05793013327512
82.0602317358929
82.05776283759388
83.69549458713993
82.01109842958812
82.02452389956498
82.02606529692733
82.02565175514576
82.02205531900341
82.01825577835945
83.64996572341579
82.00303975747677
81.99611391910585
81.98812878718542
81.98160721176174
83.60982879428931
81.95515922092856
81.96259967570204
83.58433275595459
81.93741067315709
81.92984658935701
81.92304146557406
83.50343947501818
83.53439914146507
81.86611713237076
83.53129495098024
81.88752120624115
81.8810668498822
81.87442077795987
81.86635848210608
81.84659897914892
81.85693911968983
83.47035048581317
83.45777721540547
83.44509308131002
83.43325191037684
81.78904424686549
81.78248587133929
81.77701348262676
81.77172401222658
81.76596971002066
81.76091811108546
81.75606210523846
81.75373605283271
83.38156157581754
83.37664650253132
83.3720188698515
83.3683633711783
83.36530765696358
83.36215479672704
83.36006055759799
81.72550060354966
81.7256697499882
81.72648784576282
81.72515268558199
81.72341110259492
81.72093484823625
81.71660683196382
81.71269312884569
83.33719426051741
81.696330729967
81.68939220476807
81.68236666095376
83.28780413003633
81.66624043660406
83.27637221132724
83.26475059530509
83.25328525812405
81.61327650846981
81.60625344508362
81.6010646862628
83.22471121589031
83.21518318930273
81.57607641103148
81.56916863306992
81.56169910662049
83.1736736852026
83.16191434191902
81.54281733843392
83.14877625934791
81.50860354201487
81.50132172898861
81.49664977034712
83.11862504436179
83.11250316229071
81.48884808270763
83.10611186435334
81.47529849254084
81.476701180088
81.48009297036731
81.48220567538193
81.48480820617431
83.11081730082678
83.10831720611452
81.47948249531294
81.48119322425454
81.48518937793713
83.11251185389926
83.11321230916799
83.11655503220911
83.12029537794024
83.12487908624279
81.50530992358067
81.51759244238262
81.52797976330345
81.5409155056694
83.1776562384554
83.18640760459918
83.19280337382818
83.19863402911126
81.57594502869377
81.5854303188779
81.595692313512
83.22952256372098
81.61308684344898
81.60577299229411
81.62143781398535
83.25713084008585
81.62850801341978
81.63588600563604
81.64036447166893
83.27537953795147
83.27524358263635
81.64639226948663
81.65215171177668
83.28721987619402
83.28722066705379
81.6488429464647
81.6535327719684
81.6380616527978
83.25964904559613
83.24090833781077
81.59288799963576
81.57746491448637
81.56408252314183
81.55162985136828
83.17258943733313
81.53474310885666
81.53127215359849
81.52755097541144
81.49364708022821
83.14938621957312
83.15002758140169
81.51624189734866
81.51473085159017
81.51193037989211
81.50793907449167
81.50669106404628
83.13599997238855
83.13792220550013
81.50588232587113
83.14468129403247
83.15429166587528
83.16417522889817
83.17233040727582
83.17821332608654
83.18334033321611
81.55711203821099
81.56075330265428
81.56217381865896
81.5611562333785
81.56172515580467
83.19418696380387
83.19977671612774
83.20953483981774
83.22398097512726
81.61007103097342
81.62797557842609
81.64264809566409
81.65521989083567
83.29447653138278
83.2973098125658
81.66125150135566
83.29762510596569
83.2955843814145
81.66036499775537
81.65690063258194
81.65237070363533
81.65004685667905
83.28058091223463
81.65183831531496
81.66198654647815
81.675453078904
81.69107995739769
81.70661002293784
81.73304205558229
81.72108559468822
83.37556997796989
81.75232552059791
81.74824364086419
83.38527566893276
83.37863033112046
81.75027026365957
83.37162725137533
83.36506074425736
81.72464931267092
81.72359038382238
81.73297835913901
81.74546827737055
81.75817416759055
81.78468459833618
83.44631171597352
81.82453112144131
81.84322924865374
81.85252029229298
81.86068808278232
81.86752546351697
81.86458660782682
81.85057911461642
81.83940540470346
81.82823441996652
81.81604302348335
81.80747905680805
83.75880562953216
85.43398174212281
88.88551460450456
90.66322489659466
92.47648939452655
94.32601918241708
99.53872748348162
105.6312939152906
106.6355555511141
100.4850656526469
98.51477024769299
96.58310808597352
94.68932165291521
92.83266828717177
91.01241988938409
89.22786263665107
87.47829670259908
85.76303598294028
84.08140782641203
82.89240342386709
82.8857892611465
82.88187032123417
82.87600319167203
82.87261484516431
82.86901561655155
81.24272923363912
81.24359216460239
81.24497777441239
81.24147964025842
82.85538151935863
82.85061154076739
82.84593626599982
81.22227432459351
81.22279714411552
81.22490309010459
81.22488918175199
82.84344786238427
82.83985425191192
82.83385077775351
82.82611479301485
82.81861450454099
82.81468233757893
81.19403935631175
81.19611820338805
81.19450674821324
82.81360835644564
82.81122350203465
82.80492928850124
82.79764008291342
82.79310208043526
81.17061036155819
81.17020688720098
81.17197500061022
81.17375798171388
81.17114624832959
82.78913033740977
82.78835696325812
82.78810949584668
81.16995428961786
81.16627001515521
82.78251933623139
82.78270691847057
81.16121089657409
81.16163928633813
81.16456234690365
81.16641932346479
81.16358522972629
82.77914626139372
82.77983571146571
81.15941714364997
81.15895513995031
81.15474803683075
82.76833087156402
82.76741886732339
81.14514628220216
81.144338806075
81.1499554355878
81.16912901079252
82.82727564273709
81.14888726828799
81.15287836612565
81.15677261807542
81.16008980028796
81.1628507830259
81.16433884868741
81.16382218205632
81.16290296349192
81.16259720213728
81.16320376169325
81.16340176308266
81.16029795532813
82.77727500755405
81.15929973180738
81.1607041538056
81.166933839338
81.17252909292331
81.17238048398711
82.78832907677474
82.7935643085533
81.17485068401511
81.17743598284676
81.18386053485854
81.190676845178
81.19534582556051
81.19361972607032
82.81089013121704
82.81731137654025
82.82012113409422
82.82222624071568
82.823654725227
81.20230433369345
81.20363040017718
81.2043596612946
82.82358994982052
81.2065965889682
81.2066678734933
81.21106867693796
81.21248685427121
82.83292080488978
81.21862402359123
81.21993515120948
81.22108227223605
82.84021659436482
81.22346607212539
81.22283507329732
81.22832708081171
81.23641010310475
82.87091989926108
81.2583268992703
81.26802561651689
81.26831596279465
82.88017543592713
82.88700277720386
81.26581198473443
81.26519032393033
81.26820354570656
81.27186177720584
81.27605467897054
81.28086324615454
81.28731035845038
81.29726042728606
81.30927345186784
81.31870938886789
81.31610598709031
82.92748768954407
81.30145851916085
82.93983923661401
82.94902745481589
81.32491981525897
81.32567536643762
82.96178292595657
82.97502259537673
82.97861292085618
82.96724261640543
81.34641842580369
81.34114745276796
81.34420933708772
81.34979163576212
81.3571996646677
81.36742264185368
81.38077359186511
81.38678192445687
83.00320824894409
81.38737677995699
81.38942621074762
81.39655079871208
83.01217375038487
81.39592436645354
81.39702243015392
81.41212605797801
81.41406692140855
83.0092470246977
83.01810041953067
83.02959296592246
81.40007659919466
81.39217516418753
81.39718834161984
81.40833585700508
81.42346371400249
81.42784224892418
83.03733273823032
81.41912788220662
81.41352817109875
81.42184150000703
81.43829937558671
81.45939073225165
81.46432167560135
83.06254801539963
83.08195837876636
81.46577900407735
81.46312108142811
81.47112970503922
83.08023409263389
81.46343157149899
81.45568541883014
81.45935377737436
81.46465422701209
81.46999407665622
81.47530164741137
81.48138619237291
81.48836153768461
81.49643707978478
81.50482952243222
81.51658563911757
81.53127004740017
81.54713580297157
81.55660561347644
83.16206547895881
83.16811779142945
83.18510188699716
83.20457685016699
81.57666394193733
81.57379102390443
83.1733019534645
83.18147746200461
81.56297046900185
81.55154608226749
81.54667596223867
81.54491000925125
81.54651115835131
81.55376493582366
81.56961172128364
81.58592292915858
83.20991097373174
83.23073018325104
83.24771812386005
83.25926055336569
83.26950692013499
81.64716334662371
81.64755520762337
81.65145252114013
81.65364857954721
81.65666369418705
81.66161707105093
83.26794188124533
81.63784874604829
81.66836451392788
81.69323040691219
83.33918541494448
83.3718290474077
83.4063007804059
83.42975046421184
83.44323414224181
83.45633210950591
81.84305096215212
81.85696966895256
81.87292300746083
81.88607212376306
81.89769573596101
83.51966290400892
81.88829796217064
81.89088840289634
81.89034580424594
81.89406840216893
83.51163761268856
81.86833681269908
81.8528775185622
81.83347345621532
81.81591451002897
81.79836891919985
81.77869514706401
81.75205354985468
81.52498937894225
81.71262656858872
81.73025914330803
81.72863413384879
81.73792439962659
81.75556090108321
81.77733186510211
81.79894984542214
81.52190481077423
81.55712058798164
83.40812259098115
83.4322421901952
81.81326635206463
81.83070105215349
81.84871651273231
81.86514709649686
81.8826897505599
83.52431764665938
81.90988692348529
81.92442324340109
81.93317021060867
83.56834108201016
83.57133805297693
83.57247324156128
81.9354323253002
81.92379492031412
81.91191840133735
83.51975728320329
83.49995163974491
81.86451299154407
81.87613403493671
81.90198339088296
81.93904515418198
81.98132052401473
83.64859490506787
82.07811696970603
82.17758617344498
82.2957442159897
82.43125053164805
84.21422453123031
84.33006537120029
84.42136115747331
84.5457349607258
84.78328699436535
83.38878944656487
83.60819635654666
83.80688625485236
85.72337212645184
85.96193436675505
86.21918255756896
88.29361737558415
86.85031744734863
87.10141263783034
87.30960272089625
89.29154120840927
87.71296160936861
87.94418946054695
88.18211945545147
88.4274130253434
88.68439951780755
90.84286702890064
91.18030381158626
91.55872644629534
91.99310251252349
92.48325555388408
93.14495739466282
93.7433616275322
96.16818923364266
93.98888833080437
92.14596895176899
90.33918524683234
88.56782867336504
86.83120458173043
84.29508933549526
84.31683055383313
84.35852982145744
84.42185090761328
81.14364754672556
81.30194245202014
81.83695995406998
87.45213445965391
86.06547795881565
87.28515938544336
85.57368567200329
120.7276705460211
86.99602111210999
120.3674609742312
85.52255912243358
120.0334162443033
117.3498733475926
84.72750265171751
117.0716595224098
84.8200389235308
116.7644368793963
85.80399755500122
85.25016755979978
118.7170701047888
84.98884622038172
118.3844399080733
85.10656063153887
118.2102865572967
85.20920180958787
118.0824504159594
85.21691409793333
117.9202452737995
115.4236512302412
85.19212206533579
115.2339096744942
85.18280075722487
115.0684598893124
85.16653465499573
114.929178990303
85.15303022286885
85.14964885136152
117.1282272433245
114.7936405978155
85.13123790671908
114.7344448739639
85.09839107344979
114.6825494579244
85.05509090155432
114.646354119069
85.05349543806122
114.6300818527764
85.06671782713035
85.05594179469576
116.9200907865353
85.03018459564838
116.9478234688395
114.6964608710627
85.00167404522634
114.7130908648498
84.95024107824651
114.7293860413232
84.91614868252438
84.90412110243076
117.0216385371847
84.89272370256091
117.0200489991103
84.87900981575785
117.0158525162305
114.7262185346372
84.86418991444049
114.7139706688608
84.84833150907478
114.6936163116321
86.52674626580655
86.51311604521668
116.9542090786372