/*--------------------------------*- C++ -*----------------------------------*\
| =========                 |                                                 |
| \\      /  F ield         | OpenFOAM: The Open Source CFD Toolbox           |
|  \\    /   O peration     | Version:  v1912                                 |
|   \\  /    A nd           | Website:  www.openfoam.com                      |
|    \\/     M anipulation  |                                                 |
\*---------------------------------------------------------------------------*/
FoamFile
{
    version     2.0;
    format      ascii;
    class       volScalarField;
    location    "2000";
    object      rho;
}
// * * * * * * * * * * * * * * * * * * * * * * * * * * * * * * * * * * * * * //

dimensions      [1 -3 0 0 0 0 0];


internalField   nonuniform List<scalar> 
104311
(
0.5819557210344356
0.4642944666056805
0.3924583669699505
0.5822026359350432
0.5481013807410322
0.7530399579785899
0.1893342078982674
0.9306331377009469
0.1848211617998413
0.1835817316956999
1.030935619231792
0.1825125213251453
0.3158515383924733
1.079441512681959
0.319062720692539
1.108697033993881
0.3465823415240508
1.147553171613859
0.4119954589343548
1.136360162001406
0.411518797857892
0.4104460540285228
1.150015655418853
0.4193358921197358
1.153697838179673
1.152138122500803
1.147323731284701
1.140128149679942
0.474702131635338
0.4846769324770929
1.131612706220215
0.4954430759261078
0.506624434797553
1.122512145593889
0.517570618928915
1.113320561476241
0.5369540233188722
1.104345077014702
0.5459510757701596
1.095666082235521
0.5550812546453984
1.087337318447884
1.07964640944291
1.072334562975513
0.5988460800493931
0.605732885748285
1.065252921729956
0.6128334432355858
1.057018777677112
1.049519379895591
1.043124136636799
1.037656188943024
0.6474260502128175
1.033373344905001
0.6526023271489834
1.029909024882832
0.6576127255644779
0.6623168604367619
1.025750692245913
1.021525244460316
0.6699869357823696
0.6734330573391099
1.017287057591978
0.6766866612257982
1.013140191101579
0.6796235432067645
1.009088514037126
0.6822254943542072
1.004962206489267
1.061010434186802
1.001001295492576
0.6892036813058269
0.9969529136467902
0.6916915138134357
0.6942028959407169
0.9931229550230449
0.9900146862670308
0.9870711143822058
0.7049801045304626
0.9844290301479747
0.7078430472292225
0.9820553637414662
0.710651668591911
0.9799376424361904
0.977842753260416
0.7159523197293632
0.7187257239153513
0.9757696623396571
0.7213236634317202
0.9736860521913191
0.7239186289566591
0.9713977321535496
0.7263522026150927
0.9690005118962638
0.966495356026434
0.9641500385014451
0.9618101104469742
0.7370421908502184
0.9595367011807555
0.7394152584631806
0.7416759035919255
0.9573787244355324
0.7437880322699537
0.9553873746185551
0.7456932078057257
0.953620713802277
0.7473448977128667
0.952095639418984
0.7493072968278588
0.9505933183619989
0.7518680967596518
0.9493868265192349
0.7530073065715731
0.948190526771523
0.7542960892884392
0.9470028359320811
0.7555753313414446
0.9457744884613096
0.7567867605950421
0.9444976316992728
0.7580245542878628
0.9430235228693865
0.7593701007908864
0.9415032922033471
0.762135844969406
0.9399164544278568
0.763914275367522
0.9382798645497288
0.7655297560520754
0.9366352575063012
0.7671360220474485
0.9349784753709219
0.9333366342354815
0.7699259213676402
0.7716294297895699
0.9315993889699106
0.7732870947878477
0.9300443990485807
0.7750163139407032
0.9285249535182473
0.7766440441255811
0.9270339853461731
0.7783809749980942
0.9255769299765737
0.9241812676997258
0.7815199481668835
0.9227108244901144
0.7831447868719739
0.9214341743945781
0.9201522777439375
0.7883119157109719
0.9189874401158167
0.7899564205078962
0.9176295105167303
0.7916563152127217
0.9169588546444146
0.915962262376751
0.793548932516311
0.9148140917307455
0.7948065857916717
0.9136931787696584
0.7960025051740829
0.9127034147335428
0.7971684945540706
0.7983021491829178
0.9116827923252212
0.7994127669020256
0.9106185524785065
0.8006756297161517
0.9095546869714004
0.9083522682860032
0.9072551405536797
0.9061319935175407
0.9050291111141874
0.8064862689989738
0.9039603782935639
0.807699147834065
0.9029407625194275
0.8087955173391674
0.9020525207811411
0.8097344209148158
0.901172912354247
0.8106541717197745
0.9005679880161882
0.8115799970714304
0.8999802044582327
0.8124077459621171
0.8994391322239329
0.8131229382240478
0.8989074127558446
0.8983715470406797
0.8977794032052485
0.8155604220709136
0.8164132608543256
0.8971804726010619
0.8964040327159566
0.8955753046137924
0.8945434810230187
0.8934244406204084
0.8208538970606541
0.8921883371844865
0.8217934358929011
0.8909998199180929
0.8229520955053581
0.8897392552059111
0.8239657361752878
0.8884453890498353
0.8248649824204449
0.8871277741179197
0.8257397186462136
0.8858266119733176
0.826568912884442
0.8845492202848838
0.8274198649401017
0.8832967377083666
0.8282339303542708
0.8820597686545213
0.8290467851016595
0.8808342052942579
0.8298456048814364
0.87969050572967
0.830656936462599
0.8785837968209523
0.8313753811690531
0.8774870920707997
0.8318526200035983
0.8764831091257798
0.8755696630873346
0.8331456960823287
0.8747502256194873
0.8339933902357939
0.8739947262947296
0.8345693133257084
0.8733494718577134
0.8087102621182897
0.8726919375711584
0.8720702939132674
0.8364064529492512
0.8714802777484583
0.8370688002870227
0.8719426304554981
0.8718397548012505
0.8380691596741331
0.8706159292984403
0.8389661666731102
0.8700063442180689
0.8396749115554548
0.8694312059118066
0.840097918651427
0.8696898121114114
0.868849604517649
0.8410146979922374
0.8680654839442513
0.8415899527681665
0.8674325075563271
0.8424141568423564
0.866585103212525
0.8431823809431331
0.8665580361556788
0.8438580531969099
0.8653542135208501
0.8442689523256264
0.8640681320253736
0.8629435839604614
0.8618088799978592
0.8193253315362401
0.8607216996033509
0.8596626140271743
0.8460348047826326
0.8465404472509703
0.8587315505217958
0.8578963022453211
0.84739050273586
0.857226242728116
0.8479410992607619
0.8566810492343547
0.856192209591083
0.8489637545745428
0.855782036139883
0.8495307156992321
0.8552579461811887
0.8499946343304672
0.8547298445318899
0.8541156990777956
0.8508783559847053
0.8533432068205934
0.8513694536796629
0.8523146413816317
0.8522073743481791
0.8520876331069659
0.8521404501372232
0.8527585888582694
0.8499908045641452
0.8533214562643411
0.8483390413787222
0.8538642769873216
0.8468546844112209
0.8453627960918951
0.8543672097776704
0.8439691740550451
0.8547100698217702
0.842719161935564
0.8552696982461007
0.8416905920462531
0.8555155592504896
0.840848027664071
0.8559754004940983
0.8402116442892598
0.8566051286207365
0.8397322883593342
0.8572763267587356
0.8393177671850973
0.857652377201221
0.8389463945444607
0.8385323705028519
0.8381019672235875
0.8376346538408033
0.8370998478755362
0.8592367768273177
0.8364950042704927
0.85945010633749
0.8358952737853123
0.8600445971894648
0.8352990622631759
0.860674563424443
0.8347530506718209
0.8341575689875471
0.8612496620976857
0.8337121566464871
0.8617675612055844
0.8332987669907368
0.8622104102374643
0.8329732335913678
0.8626382696052883
0.8326956653841137
0.8630721995988433
0.8323959263440315
0.8635022366716023
0.8321645560219187
0.8638046746466339
0.8318536874865559
0.8314511078222874
0.831066592181506
0.8305770978620604
0.864694434709839
0.8299933295003832
0.8649148621615284
0.8292725716690983
0.8654049404990001
0.8284334295666539
0.8275338725864296
0.8659451788743305
0.8265824376134151
0.8664871192914884
0.8256885568515263
0.8669135310591637
0.8247782696514263
0.8673071948299764
0.8239710093290948
0.8675760218165826
0.8233433561140285
0.8229401017320629
0.8857133439099253
0.8227327152929937
0.8682065859754569
0.8226603586105891
0.8684620619667757
0.8225931366437661
0.8687285848471857
0.8224626462296324
0.8221968715487993
0.821764388296545
0.8693838883626491
0.8210897584207423
0.8696460984224446
0.8201423582072447
0.8700043138403862
0.8188625424489875
0.8702674605281111
0.8173706073595335
0.8157620583191814
0.8141746992585067
0.8708782454572855
0.8126795808606172
0.8711376331156551
0.8114367602152179
0.8750669623585774
0.871463421472763
0.873023127033746
0.8105352600692126
0.8101347951166207
0.8102792427301474
0.8108285966996439
0.8116573857208516
0.8126488723576416
0.8138257254215298
0.8149890012545463
0.8730823862339132
0.8159291146273328
0.8732555206018333
0.8166132611196257
0.8735951276622181
0.8170128525012865
0.8171061041479767
0.8739888044179822
0.8170350855699605
0.8743260887308232
0.8168074918201886
0.874593476833007
0.816652531295388
0.8164314418827654
0.8562127923994822
0.8162561287315532
0.8163209356531751
0.8752444784005886
0.8165389571192981
0.8754089481150766
0.8172185641558294
0.8181496490553959
0.8757434557039153
0.819190229145569
0.8760938502432998
0.8202854200332861
0.8763146536643507
0.8214017859164467
0.8225228103207599
0.823539688666276
0.8767684455300436
0.8244876934862789
0.876932026538316
0.8251370143583531
0.8258231722955791
0.8771715553053668
0.8262927499876553
0.8774172201822269
0.8266877730443264
0.8776533863869066
0.827018724591154
0.8273974776686351
0.8778915908967307
0.8278418917066473
0.8781200685280814
0.8283304746498235
0.8783307946554924
0.8291548540349134
0.8300445700526019
0.8785824605746158
0.8310215446763415
0.8788078214314479
0.8320440836438128
0.8790373850129891
0.8332397933339708
0.8343880449863057
0.8792833926716295
0.8352464020178888
0.836256084536692
0.8791428161904054
0.8372375048167793
0.8382026161436179
0.8796888014151615
0.8389995016302049
0.8799402178742763
0.8398506969807352
0.8405590248947079
0.8800778103062542
0.840929028688133
0.8410619643085262
0.8408080960545393
0.8406831692746827
0.8804331082807684
0.8401374180329234
0.8805491447815837
0.8394257795986247
0.8807235200380004
0.8387011083550812
0.838181834459519
0.8809527909808199
0.8377034026847756
0.8376609334102182
0.8375782117608893
0.8810774451328429
0.8377006132208624
0.8811900233878687
0.8380057843458186
0.8814114577517507
0.8390618703143337
0.8391187493342057
0.8388448496494408
0.8816146394854769
0.8394544775194666
0.8817715162479247
0.8399289052628978
0.8404609860881038
0.84097484528516
0.8415630252987237
0.8820648615511366
0.8422580376707296
0.843156946794844
0.8821800006791685
0.8441939006281942
0.8453383821631612
0.8465143876740151
0.8476422451011962
0.8486200423850412
0.8825928211977964
0.8493959911749085
0.8827106933721325
0.8499523395692731
0.8502204388133833
0.8828939060908739
0.8501962236744971
0.8830557228529755
0.8500229047437464
0.8831684247554162
0.8497964997602809
0.8496290115941083
0.8496429200546955
0.8498788468202378
0.850393139288492
0.8513310979680189
0.8525950828303261
0.8541246109118767
0.8557202014832196
0.8833950262923579
0.8572042920965497
0.883599178970609
0.8585238440870298
0.8837697993263104
0.8596687287231278
0.8604876617189291
0.8610361149465708
0.8613172744195295
0.861447104649123
0.8615497937095146
0.8616354827484346
0.8619379008122569
0.8623438863150135
0.8629683064241848
0.8841734947501535
0.8637963079523177
0.8843967298733711
0.8647727890573481
0.884658982435462
0.8658406901450705
0.8669420710978694
0.8848505760361276
0.8678405601256183
0.8687453258924953
0.8694585066699925
0.863639145848515
0.8698596302977594
0.8698972018557306
0.8852230576454558
0.8698746805006414
0.9097703599699987
0.8854097040153288
0.9094352188123045
0.8696274214191271
0.8856138833241102
0.8692292349027155
0.8688172333844163
0.8857731072935072
0.8684661097649209
0.8859228501396551
0.8683576096548499
0.886099244606519
0.8686504135642991
0.8862355102725524
0.8692046361529084
0.8701077925645287
0.886383294115261
0.8713563050398881
0.8711883255435043
0.8724838499026392
0.8740361394253161
0.8867244705299799
0.8756775448636848
0.8868546951330014
0.8768270729306806
0.8778700018725714
0.887020822183102
0.8787805055966502
0.8872002818290388
0.8625488147288852
0.8791244981923847
0.8662915196048923
0.8788311551756386
0.866230892781275
0.8789091112136187
0.8791758953309581
0.8661693473723382
0.8795187898449153
0.8659682940129156
0.861801776345704
0.8800045386201918
0.90826146500257
0.8807898114623577
0.8628283522182542
0.8631932852577184
0.8815122203522875
0.9133263804264264
0.8943403783693553
0.8661002255637749
0.8557746000576236
0.883302347049047
0.8587896837834064
0.8850740389390777
0.8556519785016361
0.8531300986512689
0.8496794045102396
0.8867115923600437
0.8482886786944661
0.8503283449346288
0.8888666165133187
0.8405340174483857
0.8914152216665584
0.7726414680049446
0.8578009726159065
0.8853383445763602
0.8573592581278067
0.8743495098720656
0.8729718261512907
0.8922432990350933
0.5758941485698719
0.5467381794367218
0.4988503523624448
0.4934829750532579
0.4874067574131713
0.4810530340216961
0.4770067716508887
0.475085791620721
0.4770529083140493
0.4929319829371126
0.5535702094062932
0.6006605256652183
0.4098691195062559
0.3249688102023709
0.3199029308458671
0.3338711932896527
0.7843232393859447
0.7475147042882976
0.8279710337459837
1.057653164421664
1.046027344152326
1.043618982721572
1.025651378898374
1.027634576373712
1.023659970232167
1.021738915313953
1.013922937339165
1.006751076785061
1.005356352795548
1.003991428498402
0.9970495243264524
0.9892928368760653
0.9869097397064194
0.9880189831606697
0.9808165862158387
0.9760550840856229
0.9749675638884248
0.9695739852889922
0.9644566875682065
0.9606974708272307
0.9595449651334336
0.9583834237329982
0.9501350398103606
0.9489543470820415
0.947835986193867
0.9422567072369589
0.9430531756184212
0.9388947650452133
0.9382947034466295
0.9377605190148688
0.9345377916584721
0.9277818057052367
0.9236933292629098
0.9216387976675117
0.9164497457800492
0.9150463309540051
0.9062049986644896
0.9069844116185328
0.9054835051097101
0.9048137713334702
0.8989465682444882
0.8982294774877218
0.8977033090410685
0.8972577233615946
0.8967983261742192
0.8963529642459834
0.895997847893354
0.8902292705223035
0.8868013677030885
0.8852306672656365
0.8848103883817799
0.8843486471947779
0.8815242212376818
0.8803302815313857
0.872410883190152
0.8741252976144688
0.8735587089474548
0.8748519138434198
0.8745625480806614
0.8744694790920601
0.8746834764230493
0.875313155277228
0.8759828588686145
0.876710664165218
0.8810715270183941
0.8805697256800892
0.8813379243752123
0.8816479124791928
0.8831746643849215
0.8857867307220652
0.8885055794829395
0.889020608443257
0.8906013748583648
0.89093249347007
0.8890525105650409
0.8898150662065981
0.885714443425856
0.8859170763012115
0.8863151138512579
0.8892106020320778
0.8900695443539344
0.8909213125455712
0.8917585030155987
0.892478434197465
0.8930436470605611
0.8934511093399544
0.8934691722198338
0.8937514072871654
0.8942562428574009
0.8950964503830122
0.9020522974706472
0.9015556043686741
0.9023865667030565
0.9029267525785688
0.9088634847137383
0.9088447336205235
0.9092326842477669
0.9126414279482913
0.8563465654409114
0.8563543615408321
0.8612861612731976
0.8624410245103018
0.862338858412008
0.8623245218393193
0.8623557709797194
0.8623453457152256
0.8623843455230905
0.8624616605944547
0.8624957875699207
0.8625776568515914
0.8626950410913676
0.8639726210114943
0.8642839771436099
0.865168477843509
0.8651827493317638
0.8651918820481224
0.86525377070204
0.8654485827740171
0.8656875538819259
0.8659748605684632
0.8659800804247483
0.8659424835289962
0.8659400952649792
0.8659663508630873
0.8653697465851791
0.8652835792156267
0.8651615851495317
0.8648254225547161
0.8647395147347195
0.8637305131242514
0.8636111742426552
0.8628723358008092
0.8626661790096593
0.8613106810669952
0.8578262097187402
0.855903104622501
0.8533806825515795
0.8529702547336767
0.852540531188765
0.8521200041550684
0.8517885673952486
0.8504415344932491
0.8484593535961187
0.8467311591105549
0.8442503643720813
0.8422552896501224
0.8417369022114702
0.8344005078000528
0.8336913568893746
0.832026762977401
0.8314135399642231
0.8308260503923244
0.83024303013197
0.8250824760591131
0.8226104602263297
0.8185949747091332
0.8178709136966714
0.8134779343404525
0.8078984432688379
0.8046504700988207
0.7934137565482753
0.7923343216352635
0.7913431070555728
0.7903937419884225
0.7873770549272656
0.7863886821352803
0.7792475271842335
0.7780259937353875
0.7769249882907738
0.7758531452624607
0.7746879201940179
0.7674126135882562
0.762548835483577
0.7612390821563265
0.7599462707457086
0.758723208919466
0.7573965101340234
0.7560435103075512
0.7474300643790731
0.7401971470075012
0.7101904685262586
0.7080480812064387
0.6938181922561585
0.6831687284810554
0.6804730448009002
0.6777603452390435
0.6670097805599799
0.6643500665627238
0.6461544303281205
0.6284043111422027
0.6245307224822857
0.6205313090669737
0.6163592042834352
0.6121030548605015
0.592915814816915
0.5874685652920075
0.5818178341480769
0.5777763741547676
0.569388546466419
0.5624917246099761
0.5549693658958129
0.5495219595476787
0.5382273772719018
0.5291640028516144
0.5203062974224905
0.5122752240583121
0.5051306097145679
0.5029739954097089
0.4976764302749022
0.491554027427227
0.4857613544373623
0.4804252572985236
0.4746775718231731
0.4694629523521416
0.4547232671988731
0.4829578633432585
0.5709404267846983
0.4497581582148867
0.3159148192092023
0.3073110091720545
0.309822054878578
0.3130586922836054
0.3189582045771779
0.3301170559675231
0.3469746949347035
0.3737878097613381
0.4213638524568833
0.5045979862163137
0.618346809827129
0.7259040330383083
0.7562891716738959
0.9390411879382257
1.011922449753882
1.067854093649934
1.104076531082086
1.129317756724256
1.159231421397056
1.164778584549961
1.165931931981974
1.164263421260475
1.160730714806301
1.15598793649863
1.150529381162941
1.144665550750075
1.138638396514855
1.132626536695211
1.126689143243217
1.120959231744164
1.115253575734884
1.109629635008897
1.10378170872811
1.098198667705009
1.093132997309
1.088676188518708
1.084805029889056
1.08139271072454
1.077944536120965
1.074519174551239
1.071072349206729
1.067655704085872
1.064279907401486
1.060568208159649
1.057250738688852
1.054373293755871
1.05127997727398
1.048515510873663
1.045690145485797
1.043345398465205
1.041405599943827
1.039367549684829
1.037384267162303
1.035465035968883
1.033575388090252
1.031596195598344
1.029576580779355
1.027698308403739
1.025646723576737
1.023658446922608
1.021701253766714
1.019886885804735
1.018179337664462
1.016609564098992
1.015192027686912
1.013869730264703
1.012648643201845
1.011489623444573
1.010319717899647
1.009148471009599
1.007936142136537
1.006707164780424
1.005319901118381
1.003932722821267
1.002596276688771
1.00118184331693
0.999775047457644
0.9983754651226879
0.9967791022042515
0.9956252118881391
0.9943024845684725
0.9929872681002646
0.991692991668325
0.9904451010892047
0.9888351812449852
0.9875358592270246
0.9862640073885018
0.9846755003825266
0.9857419854261907
0.9836144870320931
0.9826790317033097
0.9816712853162841
0.9800369763930298
0.9789497379566413
0.9798112942163179
0.9779311136403097
0.9769579575639741
0.9746802523302751
0.9734923812739907
0.9739761881624864
0.9729873497099466
0.9720818192344004
0.9711509343982586
0.970307172026453
0.967010368152035
0.9681578989406523
0.9687764868425783
0.9674866285997298
0.9668968293279037
0.9663161163993587
0.965715740136067
0.9650629409068854
0.9605068389156525
0.9636223099333182
0.9627218833229593
0.9617018730094038
0.9559666556776549
0.9546717319660011
0.9533500462180323
0.9571996810045255
0.9560045882080851
0.9548126707601376
0.9536260170487055
0.9524509883386159
0.9512542896897515
0.9441317705413422
0.9428368332976621
0.941594989261385
0.94674424238524
0.9457238193298091
0.9447615324634117
0.9438612700304755
0.936229834953495
0.9352841577278284
0.9414874675625977
0.9407340277612897
0.9400368586912129
0.9393778534081724
0.9312608001397602
0.9304648447571032
0.9297360338965189
0.9371885213589946
0.9366278118163397
0.9359535665994577
0.9352432921783045
0.9259845391317054
0.9336488508762127
0.9327849317019397
0.9317834460544544
0.9307951360313116
0.9297556631236294
0.9287263008971666
0.9189189406177948
0.9267715885143705
0.925891765828238
0.9250885105324719
0.9243317305911892
0.9147692692679242
0.9223334534864025
0.9229651803791068
0.9126848440287956
0.920811693793319
0.9199307268073498
0.9188765422994963
0.9089024949180704
0.9076418975214031
0.9176766886876003
0.9062698737851259
0.913699056651247
0.9123495183052693
0.9110748830040243
0.9098806213650816
0.9078512332306613
0.9087863255288336
0.8983147448955273
0.8975467824758436
0.8968671637834971
0.8962348076431143
0.9041642540526564
0.9035382618199781
0.9029088760926598
0.9022332248168842
0.9015145258421927
0.9008206572799985
0.900127294075432
0.8994533620453267
0.89064792671103
0.8900034759018821
0.8894955265653721
0.889065838524833
0.8886565260596029
0.888241949153144
0.8879098121533183
0.895565163421989
0.8951048956475053
0.8946703561552638
0.8941100800090538
0.8934951899975747
0.8927823569078867
0.891956911617527
0.8910432712355716
0.8823279127556601
0.8892524244771984
0.8883519967949079
0.8875015612990486
0.8779078525164314
0.8861503460644092
0.8774763840215665
0.8770911742222282
0.8766646539902095
0.8838480168817807
0.8832497401724034
0.8824788578314016
0.8739575702878072
0.8727620391842691
0.8790402860835158
0.8776812882110273
0.8763432700636211
0.8662423913859867
0.8653166599481422
0.8739488776507029
0.8647105694352154
0.8721849097789122
0.872280671653888
0.872574888030537
0.8655134419763247
0.8660395727057096
0.8729832419606863
0.866637922690871
0.8745697414304178
0.8749214666794843
0.8751361216385185
0.8751605616655184
0.8749815011805867
0.867387608493195
0.867074144438185
0.8743240487204302
0.8741461321798073
0.8741476466843162
0.8668264406228182
0.8670872886123575
0.8677061816664231
0.8683957166075998
0.8691520600456161
0.8775512269662961
0.8784372657721579
0.8791694091030007
0.8797557758658511
0.8732026462307032
0.8735768945501321
0.8739623676816378
0.8742773690449409
0.8819534227430118
0.8823291311609747
0.88259217566535
0.8758673837208046
0.884327602583341
0.8835730569285134
0.8848544101588706
0.8786381025190347
0.8863757558451905
0.8871737049572256
0.8877891800127004
0.8816343063317551
0.8822258368251711
0.8896755734178503
0.8902134316517785
0.884019486133628
0.8844190701504094
0.8908383698455264
0.8910600767152119
0.8905430775315497
0.8835360946997859
0.8829760129749841
0.8883350606962002
0.8874828999476932
0.8868932415509544
0.8864558733755511
0.8796858137303475
0.8857530475226161
0.8856912470233324
0.8857419663047258
0.8859400471487838
0.8800094523670116
0.8804457385839868
0.8865236888755247
0.8868352711083544
0.8871023104310113
0.8874159650701048
0.8879174496568762
0.8826252810006686
0.8835115981938786
0.8885621400144825
0.8843857264467837
0.8853251282279009
0.886222627654218
0.886995165961509
0.8876087126133514
0.88805430090857
0.8936829544310325
0.8937203795692027
0.8936197410696698
0.8934751269594721
0.8934123863701809
0.8880797437789312
0.8883321965580767
0.8888211604153762
0.8896609133415602
0.8961499717531878
0.8973289790097827
0.898554468216244
0.8996431772400758
0.8957788856195614
0.8965344122317822
0.900686228355954
0.8971577965022446
0.8975465230444319
0.9025460091871215
0.9026245728184623
0.9026875905982567
0.9027613699455436
0.8980990250432932
0.9033442381589056
0.9038777988443393
0.904615290880907
0.9054777354393728
0.9063796749943929
0.9081518180082815
0.9072474137438319
0.9042600574447603
0.9097657448442064
0.9093960138672423
0.9051519554920103
0.9049946474411451
0.909724711174396
0.9046901158982101
0.9043702694643274
0.9086996038726118
0.9086947885283098
0.9089497514751376
0.9094639237883057
0.9102909191424988
0.9112050161372853
0.9081856784812991
0.9137766982919792
0.9150636828505946
0.9160068401661305
0.9168073730364318
0.9172845403714255
0.917385595366638
0.9171259703101935
0.9169431141747661
0.9167812654615709
0.9166986590341902
0.9166655108140843
0.9168601129736622
0.9167823200621923
0.9141197152480962
0.9152506079019754
0.9212459647224457
0.9195467551055523
0.8494834456445102
0.8542256284385706
0.8650954798368651
0.8645643385293919
0.8648851614644443
0.8621346494809088
0.8623060074725156
0.8625693000264513
0.8642444561972226
0.8641298518173942
0.8640876794022603
0.8641986995106444
0.8643494090118715
0.864424716245684
0.8645371829079844
0.8645869430545516
0.8646750477502178
0.8647014736699538
0.8647288328294657
0.8628342234354883
0.8629815166842099
0.8631308665173527
0.8635769333190287
0.8659388170389605
0.8663569368489555
0.8666984107581234
0.864539430184491
0.8649021235187888
0.8650779580375305
0.8653255078193859
0.8677496255346784
0.8677012503797087
0.8677333981465493
0.8678624632814773
0.8681328154210366
0.8684094656403517
0.8658669287478192
0.8660175704071448
0.8661358833002171
0.8684977623786601
0.8684303597496902
0.8683722065139197
0.8683679400342051
0.8683690705312442
0.8659348691117714
0.8658705964428383
0.8657832379256545
0.8656584548990774
0.865603719479036
0.8675269344286347
0.8674167683254642
0.8673019370499633
0.865084028093983
0.8650341265841858
0.86694134628742
0.8667948549856868
0.8645660835821264
0.8643944527277085
0.8642318704099985
0.864019202364827
0.8639279536051094
0.8656351213785779
0.8655167613946586
0.8634674846095266
0.863291531681161
0.8631604320065025
0.8647072620086361
0.8644430992595362
0.8624112083046915
0.8621349894976827
0.8618619318680577
0.8616245400877087
0.8628911074522975
0.8610406205925384
0.8607605934288473
0.8604749168093107
0.8601887326579543
0.8599039086423743
0.8596206197502348
0.8593427966638896
0.8590605973303231
0.8587808470429383
0.8585101902807433
0.8582507706329517
0.8580618040303524
0.8591088091889951
0.8575978080507081
0.8573550315190903
0.8570817667345683
0.8567796837134422
0.8565209043231161
0.8574035371424606
0.8571073791637845
0.8555630993783652
0.8552124178276898
0.854862563481283
0.8544769978453162
0.8540886391271759
0.8537312904003962
0.8544835861147003
0.8541730494607784
0.8538115017706712
0.8535167790369016
0.8531676270381349
0.8514927377916991
0.8511439241258679
0.850795321689054
0.8517215705940565
0.8500329921846368
0.8496443738723281
0.849239900227312
0.8488406045991624
0.8496138070970973
0.8480164195537828
0.8475895109699408
0.8471559317428662
0.8478417260853982
0.8462266789266522
0.8457440911457912
0.845248528397671
0.8447344190676818
0.8452893197006219
0.8436912574189487
0.8431789949264059
0.8427129177671058
0.8433089101645724
0.8428374616242438
0.84124377140545
0.8407167601243744
0.8401742310355337
0.8396358009937844
0.8391022597572781
0.8385597281517274
0.8379803217286936
0.8373635056935306
0.8367525975630773
0.8361470897969272
0.835598036750231
0.8360284713423471
0.8349850962924015
0.8354128268884018
0.8348230690757237
0.8331298448915331
0.8325640374072547
0.8331520995389277
0.8325101087235895
0.8319063351052642
0.831316567209392
0.8296643334931224
0.829082443521323
0.8285028814231788
0.8279361465247147
0.8273812321054678
0.8267912342411586
0.8261901907283097
0.8256086401580806
0.8259002015458077
0.8244434621316497
0.8238331609920003
0.8232099171504053
0.8233761847843997
0.8219682542974054
0.8213461808405152
0.8206901629807075
0.8200026201206591
0.8200867411284493
0.8194915376474783
0.8189403843054472
0.8171677808984513
0.8165745016152268
0.8159479463200199
0.8153076913526409
0.8146929296321046
0.8140794654121967
0.814374750978899
0.8128142777784693
0.8121841111230889
0.8115717692412744
0.8109198247468246
0.8102374315089328
0.8094668761298442
0.8093135228125514
0.8086366092675984
0.80709040052999
0.8062721756170889
0.8054340369354627
0.8058018763377411
0.8038923624551415
0.8032079048294298
0.8025237061204608
0.8018028353392816
0.8010632562588944
0.8003012210011783
0.7995423553502622
0.7987829324217451
0.7980420656179392
0.7973179890535762
0.7966721844910949
0.7959710157953259
0.7951957874811577
0.7943546787756219
0.7929746879198114
0.7923215991419658
0.7917156439925003
0.7909522814455928
0.7894255176077182
0.788406471451604
0.788481901311625
0.7877380380591884
0.7856627439297642
0.7848218492395918
0.7840732443822119
0.7832341374741237
0.7824535406598838
0.7817059330556614
0.7810224398315077
0.7801934868492985
0.7787496620543238
0.7779764815174871
0.7772731858487684
0.7764131678617597
0.7754615937003679
0.773392168642029
0.7722851077156668
0.771301951367324
0.7703860397915681
0.7693990804853063
0.768389082460292
0.7674831809969783
0.7662953746237895
0.765146629322303
0.7638559290781458
0.7626897873831976
0.7614712817620425
0.7603101931962978
0.7592217145333131
0.7579954816094731
0.7567929439556204
0.7546527422792196
0.7528425921071445
0.7514746981072452
0.7501896222207212
0.7488366057633277
0.7483862830664073
0.7460026891655617
0.7446161125558037
0.7431963863532531
0.741688045542055
0.7410689673893428
0.7386838353466445
0.7371708896301135
0.7356077878770386
0.7341324165597449
0.7326134498608192
0.7310799335331868
0.7296242378253783
0.7282000304283723
0.7267207716269667
0.7252082506952244
0.7236354187455852
0.7219573647286217
0.720194020204849
0.7183153337057657
0.716309437595418
0.7142562894871538
0.7123130694803442
0.7109004231302947
0.7089399007245116
0.7057732317666999
0.7034598165475526
0.7010029726091291
0.6986378301193902
0.6962447974761427
0.6949579210324065
0.6912865532503909
0.6885790484324875
0.6858726094952257
0.6842933910184255
0.6814932848321065
0.6787921366001239
0.6750354833241404
0.6723302212273591
0.6696271817250254
0.6683833843164887
0.66579222001611
0.661721530480096
0.658984858517752
0.6560357947442399
0.6528645970052843
0.6494843623738384
0.6479242616419857
0.6426368189908489
0.6391101664123144
0.6355744962235522
0.631964290853275
0.6299780098313632
0.6259536995253161
0.6219291502051605
0.6180318270982378
0.6140314549675202
0.6075602879433161
0.6026899103131561
0.5978127403926899
0.5948464152775572
0.5892048861725828
0.5836818597543734
0.5795003553038289
0.5713084236364574
0.5644321712206786
0.5572917487468299
0.550993877915709
0.5412888331690645
0.5323667310699546
0.5237711146653228
0.5158071479069907
0.5087178130568103
0.5034539134230397
0.4981890539677565
0.4920526834188805
0.4865853817754337
0.4816341730921354
0.4765197080832688
0.4702001398475159
0.513260168922346
0.4712307605144366
0.317085901558117