/*--------------------------------*- C++ -*----------------------------------*\
| =========                 |                                                 |
| \\      /  F ield         | OpenFOAM: The Open Source CFD Toolbox           |
|  \\    /   O peration     | Version:  v1912                                 |
|   \\  /    A nd           | Website:  www.openfoam.com                      |
|    \\/     M anipulation  |                                                 |
\*---------------------------------------------------------------------------*/
FoamFile
{
    version     2.0;
    format      ascii;
    class       volScalarField;
    location    "2000";
    object      T;
}
// * * * * * * * * * * * * * * * * * * * * * * * * * * * * * * * * * * * * * //

dimensions      [0 0 0 1 0 0 0];


internalField   nonuniform List<scalar> 
104311
(
238.7509656902626
219.1815418476371
206.1927080655834
307.6896245772089
303.5503143626872
309.1776649063876
297.7716590560324
310.2664643964736
298.0172158079648
298.6220125236833
309.9444261664017
298.6619615020408
187.0968701297583
310.8949852254082
187.9788345743254
311.8304197986517
371.6540778052592
308.5608182517213
388.6878559093183
313.3477821512916
381.4225570463745
373.0752793802033
314.0011457667693
369.5867023350739
314.3649386701059
314.6962160174084
315.033180097038
315.3236889068495
344.1840287517392
342.2475304232569
315.6085200203223
340.3775313788452
338.5508598971028
315.854702528083
336.8085239095503
316.0337484845999
333.7922759749098
316.1609527933977
332.2309869826249
316.2472666072439
330.3525435834378
316.2777876950456
316.3087152281965
316.2611142171047
320.1131339960648
318.5862434899021
316.1725286924462
316.9061097328973
315.9563221780292
315.7561243859649
315.6219816221285
315.5315390942698
309.6410703424419
315.5162813823317
308.6272599094216
315.5523951222771
307.7452161466778
307.0046069287935
315.4989116013425
315.422217590002
306.2910780708071
305.9809413352228
315.3282156826472
305.7092747835432
315.2259592862918
305.5204626468916
315.11593518272
305.4379509185283
314.9887032959952
298.9285436798622
314.8638655293254
305.8038012604121
314.6784621230959
305.8964551475128
305.9867671955557
314.5116587770551
314.421678486061
314.3069940068835
305.9658149937227
314.1942457257368
305.8897619388648
314.0833322303719
305.7730676620624
313.9669169152472
313.8687418246483
305.5570118058467
305.4185631625687
313.7887578754609
305.292314178821
313.7105610647392
305.1551619558482
313.6202048752035
305.0227237347639
313.5358117408535
313.4258890799603
313.3279252521151
313.2122557069381
304.915924970211
313.0850214525509
304.7492069988583
304.5779968232076
312.966083031139
304.4373097171114
312.8612313938793
304.3584111644928
312.7673976980907
304.3616830315457
312.6991962763277
304.2214032988427
312.6115775995414
304.4983186988879
312.5410538029347
304.7030210456724
312.4606427089537
304.8672315270235
312.3852164752717
305.0188380117728
312.3139292453846
305.1703525146588
312.252934880723
305.3353023314959
312.1702557282972
305.4716712874227
312.0932709304146
305.7053186240503
312.0086400476886
305.6883821948336
311.9142319988514
305.6918698280183
311.8210630490561
305.6667275655815
311.7365808495627
311.6664617849535
305.7237767392496
305.6285359424237
311.5707107865192
305.522417697345
311.4796475018188
305.3959880591223
311.3867064819797
305.2869661218822
311.2999705633313
305.1161132761424
311.2174343607254
311.1497464119752
304.9339033161617
311.0551238551785
304.7681781384732
310.9744904455523
310.8851854568973
304.2095954354997
310.7916371464818
304.0282489578028
310.7262741976468
303.7993095387853
310.5407195039529
310.5020706991467
303.9607263344971
310.4626191462855
303.9151091229606
310.3967996726047
303.884107148227
310.3456656444951
303.8593347339454
303.8220045904611
310.2883035783552
303.8112023349051
310.2255427281159
303.7316331993777
310.175266301804
310.0945894694396
310.0201697582914
309.94782441077
309.8785100300486
303.4112155492102
309.8140459413137
303.3021783188221
309.7489382546442
303.1965599298696
309.7048994670236
303.1517800191072
309.6240349085397
303.1397984651425
309.5706870071779
303.1460260977988
309.5134838912297
303.174663373064
309.4602238322713
303.2523576204509
309.4073882534855
309.3526361458588
309.2931115912478
303.3097540836956
303.3238648956481
309.2491691376429
309.1758794364166
309.1172477957067
309.0548137846247
309.0044014975501
303.1781245350405
308.9235173772531
303.1094624734698
308.8518568661747
302.9932257875425
308.7699891713429
302.8860991602705
308.6949081355575
302.800224407691
308.6242417934224
302.7389455492965
308.5578136927049
302.6798747381299
308.4869171255375
302.6289535831617
308.4107473370762
302.5846880185293
308.341212391876
302.5460850406639
308.249102360224
302.5072938572473
308.1599169716404
302.4687176683336
308.0677592230105
302.4415525660637
307.9880656545626
302.496936157869
307.9185079106503
307.8483245219704
302.5452397268971
307.7896719286006
302.4808208223952
307.7093381043334
302.4954811376205
307.6262370103216
312.6380539788245
307.5605526423273
307.4966205627198
302.4726530003763
307.4339598906064
302.434634166219
307.0334669816085
307.0654513873983
302.2789821227974
307.2588752196023
302.157933955545
307.2215268197186
302.097317246031
307.1892250770541
302.1399394304606
306.8513904571045
306.9440001460487
302.2066769357983
306.9669838581657
302.1751446469974
306.9541958311376
302.0639345798998
306.9330615389337
301.9821409803862
306.6060709852225
301.9456570069775
306.6994782360367
302.0048594167689
306.7036856401315
306.6935870246141
306.6589887025443
311.7842235367966
306.6227129027216
306.5512781066915
302.1116759363637
302.0973793998353
306.4935556100777
306.4401203802558
301.9834390777439
306.3868887856822
301.9716837562279
306.347539676331
306.2731996657024
301.9688501334935
306.2241338654536
301.9122575469457
306.1779685273195
301.8932823520839
306.114639011197
306.0641420357933
301.8812252033559
306.0124166402996
301.8336421505829
305.9558805939119
305.48325471241
301.7328513859367
305.5025143153568
301.6555091779911
305.7331587291774
301.5989910017317
305.6975544473096
301.5559629162013
305.6408122279606
305.5800453973221
301.5315227123399
305.5177188918497
301.568772427565
305.4466675202466
301.5227782880863
305.374365907542
301.6067925299652
305.3037040245832
301.588269250979
305.2152719909697
301.5028064949387
305.1306878033197
301.4450755781641
305.0467693949324
301.4497551728063
304.9674606834931
304.9137476641009
304.8724692315971
304.8358003564915
304.7953936959477
301.4264983942982
304.7496212472748
301.445688351464
304.7089934841679
301.3683292878475
304.6697927359679
301.2704637705447
304.649359211707
304.5933792001244
301.1879200219117
304.5543477327771
301.1313055092378
304.5184212972912
301.0867845727876
304.4921013320962
301.0467722850541
304.4718935256519
301.0112293342916
304.4511992451311
300.9863822950416
304.4382172897897
300.9971769855697
304.4403760751048
304.4443724789476
304.4532527393458
304.4452414444338
301.044708083656
304.4299971968251
301.0520157386869
304.405175333746
300.9899688889936
304.3658222176589
304.3295983513918
300.9085616533555
304.2511001948349
300.8462457102509
304.1933730317795
300.791903510948
304.1345214940125
300.7545788063063
304.0753661488234
300.7622669980993
304.0124085348992
303.9618726457352
282.5847932744786
303.8871083547605
300.75081128587
303.8148552703671
300.7453901506053
303.7411906050177
300.7387314670635
303.6687240391428
303.6235746895091
303.5827848732471
300.6953268153852
303.5502555618274
300.6805516731735
303.4805191389019
300.6427221640091
303.3923815750824
300.6368453543124
303.3174600992849
303.2456736047827
303.1696489037873
300.6098127333751
303.0942626376917
300.5990615078766
302.9896829021598
281.9395096556529
300.5838703620646
281.7813507194269
302.8857350072826
302.7873855054714
302.7297895868256
302.6965710211982
302.6815984996745
302.6433834618655
302.6182389037369
302.5911667329476
300.5291802382414
302.6010070617312
300.5445599254478
302.622575011483
300.5130128779128
302.642977699684
302.6475045132107
300.4664689009928
302.6559550440377
300.4256937672959
302.6188804372269
300.416001553373
302.5892419845718
302.5831596855693
307.0205929783025
302.5811576344795
302.6053042328937
300.426926781157
302.5848895325947
300.438042776903
302.599037905581
302.6309840682858
300.4059553080398
302.6660182254455
300.368324484178
302.7073432761214
300.3609335407563
302.7922423104621
302.8919306998725
302.9772368843987
300.3488490225976
303.0762595139829
300.361269797714
303.1149403683748
303.171808851298
300.3490126629802
303.2114592658437
300.3331641306398
303.2469368063898
300.3246501999672
303.304322349353
303.3679296989504
300.3211112010363
303.4372561848838
300.3176369286959
303.445962184938
300.3118358101158
303.5075615683741
303.5665668726311
300.3058561270493
303.6331953374981
300.295961406768
303.6630568380002
300.2821666668069
303.6972864984448
303.7570205533749
300.2666190658408
303.7955407202876
303.8165691072895
300.4461762160623
303.8204981707175
303.8545058095264
300.3198925496761
303.8863338762931
300.2842624054957
303.895407231449
303.8772013996406
300.2871747307672
303.8518402305856
303.8008344099983
303.7105950208599
303.6152724197424
300.3422111428558
303.4663770969402
300.3684897902769
303.3415733966784
300.3662723370131
303.2252373360722
303.1303940879239
300.3409889860471
303.0494597296832
302.9857960531112
302.9363970619124
300.3880791112098
302.9142722603444
300.4130869170058
302.8913234800302
300.4024414003209
302.6130426793239
302.6150120431629
302.8419173455771
300.3835932336335
302.8503583957242
300.3838700801634
302.8290707518038
302.8245520333148
302.8125073320084
302.7957399190174
300.4301452679147
302.8032501736233
302.8151608669593
300.4630464321812
302.8487175437882
302.908317026107
302.982446045079
303.0600968541617
303.1260256057269
300.4960546569333
303.1760074164561
300.521997449169
303.2109140434146
303.2378553578915
300.5149682493138
303.2488386042368
300.5077652484874
303.2485544894847
300.5155039747898
303.2358626395842
303.2400243066094
303.2388406910084
303.2642143229014
303.3193155378245
303.4143383680355
303.5490290006201
303.692711673644
303.8147675708956
300.7040313377307
303.9224309515466
300.7183768526897
303.9817550841375
300.704131899486
304.0177768800726
304.0168367113564
303.999405023262
303.9792264010453
303.9502004958127
303.9235457136814
303.913471368446
303.9083098329905
303.9393380646963
304.0075134273221
300.9317206943335
304.1016346392863
300.9341434556161
304.2132319432351
300.9256897474282
304.3288057910657
304.440484346941
300.9329534101653
304.5342846798396
304.5970051200404
304.659480845961
308.5203926760325
304.6859300242746
304.6780319325579
301.1107022889585
304.6431190582491
291.2879464418553
301.1494265576171
291.2610595429736
304.5910936926946
301.1519640299461
304.535319660591
304.4869907004479
301.1635354650113
304.4492038074174
301.1982168697172
304.4540055250523
301.2514099705565
304.5104978134563
301.304034679028
304.5791817634103
304.6632580660151
301.368946864377
304.7802864410031
304.809782127058
305.0358417589826
305.1471447022599
301.6399800949825
305.2931857518586
301.7262809966678
305.3704201641735
305.4403755554968
301.7992381033197
305.466747907115
301.9146805342809
310.538419292997
305.4083828187863
309.5082373128691
305.2858494609498
309.7231471204765
305.1997925551279
305.124959188036
309.9452937449748
305.0516598722797
310.1748110179524
311.4309885210154
305.017437619225
295.8152079201511
305.0059709211859
312.1087097557422
311.6455803266696
305.0053588926296
294.3644741720138
303.5842337822544
311.5791855330776
311.9432659076348
305.1405234914414
309.8535163490284
305.2855828766486
310.7194736861945
310.1884427307781
311.4742819645421
305.3452297431857
309.6396343090866
311.735965882603
305.5903664404002
307.700563652567
305.5982275273946
306.64029502881
312.5246898048674
306.3571300668855
312.5884973445444
300.4188413209596
306.6140967606443
296.7819518214844
321.5032145168216
323.1029611272894
323.88126872917
324.9225638087543
325.3982537282529
325.4326924320512
327.4230202178453
332.3296847009351
332.9007204876438
319.9649062039324
290.3298214367945
253.1988628347951
210.0416392233418
189.2773296439287
188.1433365149389
191.2616795036465
266.0125416038236
261.1990848212711
271.1762816690749
298.5585306880056
297.2640545795285
296.9936769515415
294.9181770622661
295.1518397509543
294.6823726220209
294.4542110355737
293.508434391899
292.6186547002789
292.4446837550555
292.2740721088522
291.4125869129511
290.4637226735066
290.1640231518767
290.3020895310634
289.3899674187687
288.8022627034742
288.6699255571286
287.9902320063305
287.4217519349045
287.0008121472958
286.8700797171386
286.7454727908984
285.8973803573099
285.7781616371398
285.672948547551
285.2138844776652
285.2736562009653
285.0205622041012
284.9898366387427
284.9700079037163
284.8024349398511
284.3317023033404
284.1362137176256
284.0687787359692
283.7270258204043
283.6163828999994
283.0629089432657
283.0849627990768
283.049353682714
283.0406624183514
282.9334235089724
282.9088201251188
282.9084401326526
282.9176699701828
282.9239775961457
282.932392845453
282.9509619605188
282.7688073562616
282.5858978440496
282.5927883083264
282.6085888407637
282.6181023804199
282.5099290448364
282.411000585454
281.7648692933061
282.4045653823991
282.2604030247633
282.8350549963565
282.8386689631579
283.0103579835184
283.0870737131149
283.2159400539916
283.3499501324553
283.4932172576567
284.3581181039179
284.2491092867337
284.440924858786
284.5297527943495
284.9370256523171
285.5109956128267
286.1087823337093
286.2329826054704
286.6174549033083
286.7200006223841
286.8125065180782
286.8362008219888
286.7149446588841
286.9734370288936
287.0743013027638
287.7373723526234
287.8777221619339
288.0195198836838
288.1602876074027
288.2847363117662
288.3888565467344
288.4732131795175
288.6224440593579
288.6792923269361
288.764824313317
288.894411225725
289.968304018257
289.8733170365634
290.0385431884701
290.2358934150287
291.1238625697887
291.2132508440232
291.243149899279
291.7551677785465
312.1441293104974
312.2594915901444
311.9731360915039
310.4230692309175
310.3018005215886
310.1735361062675
310.0369763866341
309.8963497507116
309.7524821044634
309.6150343425573
309.488673258673
309.369745611778
309.2505606419049
308.3514505587847
308.1781854164129
307.464075406494
307.4079107161446
307.350916370046
307.2671483976096
307.1482135609009
307.0077879101261
306.6598380849774
306.62297203653
306.5942290740398
306.5494920845454
306.5013060393533
306.4059461969168
306.3987120117246
306.3905426983364
306.3379028546984
306.3229386326678
306.3235442659424
306.3146784381441
306.3296697403113
306.3456345862244
306.5279660944399
306.8878735892798
307.0486803771302
307.3697198093663
307.4168933306408
307.4709609023278
307.5268120724618
307.5698649405209
307.7111685863967
307.990749527484
308.246058798822
308.6255198524104
308.9143266705505
308.9743138141737
310.0902793075541
310.1714559009809
310.3928131156321
310.4600676646726
310.5271398042539
310.5917315162154
311.1891047192045
311.4595065680602
311.8448943059013
311.9059851486937
312.2330533704598
312.7036122314443
312.9094960511636
313.5286958356709
313.5671185188061
313.6027803262102
313.6304475974142
313.6980743359055
313.7151771516084
313.814398719462
313.8323639193043
313.8494473869358
313.8624743123401
313.8763692280381
313.9792205130092
314.0185706347281
314.0351007179194
314.0554719009642
314.0774560559124
314.0894445217538
314.1088592575878
314.1590978181092
314.0170779285348
313.8329677319794
313.8465347395481
314.261182101206
314.511849616084
314.5600201829884
314.606201926205
314.7529170830961
314.7997684210009
315.9884000605095
317.3323426635459
317.6579070345211
318.0104268927916
318.4131490774593
318.8891524995418
320.6178028557264
320.9452739260714
321.242780039174
320.3674940893881
321.9005323953293
322.3485578000841
322.8410548619746
321.6610572369848
323.3417357852118
323.3342566738991
323.1476042575989
323.0324311888349
323.2138153946174
322.0806821899566
322.7643689471318
323.1295133445744
323.4280239386263
324.6343212068106
327.8973764016658
332.0922720276465
339.0022851356314
329.2857611965348
283.8037418802276
224.3581837282171
189.1177282754642
187.1709503701033
187.2210285782946
188.1972634728339
189.5218279699777
192.0362057448706
195.6604992519961
201.0736382454461
209.9986565535463
224.4920617087284
242.5968446451859
258.2406332197116
262.7063672025268
284.7870731604231
293.4210553657985
299.8202508399024
303.7959480734567
306.5522319957353
309.7887867803221
310.3314893723241
310.4071809219803
310.2227768931492
309.8282127387058
309.299884248045
308.6945603328128
308.0472786882646
307.3846649083782
306.7253697653717
306.0755009130933
305.4493425793366
304.8253599128959
304.2112412252069
303.5719650481989
302.9623769752441
302.4106640044211
301.9271183510752
301.5096112994708
301.1431959145008
300.7719666458677
300.401986074645
300.0283981794784
299.6560849094416
299.289839275155
298.8672159543684
298.4891512777829
298.1948079744776
297.8503734891265
297.5441004138317
297.16097061309
296.8897408234452
296.7439870457532
296.5130241646419
296.2868132622473
296.0662821187649
295.8473957883796
295.6172108695399
295.3811399012261
295.0522437151059
294.8085166006354
294.5710766483606
294.3365445960967
294.2332914409739
294.0277810809824
293.8382966621012
293.6631213391906
293.3958941711178
293.3513092020841
293.2080373818315
293.0629143792763
292.9180939859105
292.7647028911977
292.5131752949548
292.3466137306679
292.1817602325359
292.1000790718676
291.9232814118606
291.749450155799
291.5739107808943
291.3380991442196
291.2390533873199
291.0794685335379
290.9199945463593
290.7623911003954
290.605801965821
290.3847865781125
290.2472619181125
290.1137026458092
289.8787214268301
290.0134320675612
289.7431356372809
289.6241361563128
289.4964740019772
289.6051686425119
289.1566270720118
289.2631510833226
289.031133299599
288.9117213511128
289.2020526218155
289.11546725652
288.5509208551118
288.4305425772977
288.3020452605035
288.1864036375559
288.0662876014093
288.7384817057887
287.8255222324101
287.8862930031152
287.7475280929439
287.6870173524135
287.6243365357519
287.556786862326
287.4857316380347
288.6013284532123
287.3209847073079
287.2208507115197
287.1060456169245
288.3985181383298
288.327586778461
288.2520847105428
286.6184554551187
286.4917589924491
286.3672199795153
286.2450730606431
286.1248085360324
286.0043659661883
287.7296172821853
287.6608098716217
287.5987171393945
285.570958378402
285.4811421729817
285.4009654845966
285.33197099167
287.4084997934896
287.3908579434474
285.1588913531057
285.107971985633
285.0660572691242
285.0340001047849
287.3773735190252
287.3734483372444
287.3766028318614
284.944849546036
284.9202463638558
284.8813170450186
284.8418333997913
287.3377335117131
284.7408654095408
284.6836844236882
284.6096630938781
284.5393435038823
284.4633021246445
284.3919274440385
286.941289408749
284.2653373587553
284.2175654248646
284.1799571492475
284.1504883342727
286.7994147953497
284.0939957776699
284.109278110453
286.7675745128714
284.0252726298555
283.9756656759196
283.9061051795585
286.5180295640997
286.4056137893678
283.8161385921898
286.2808138403763
283.5134732310522
283.4101747164883
283.3165642647069
283.2343989989896
283.1207509250324
283.1669089206371
285.6915494544348
285.6638462874839
285.6465263208756
285.6330009539147
283.0340908995017
283.0295075685888
283.0230533263149
283.0087839217636
282.9879462482918
282.9690615009159
282.9500357950074
282.9313205760689
285.4433397487721
285.4142332669667
285.4035461009585
285.4031966373392
285.4049920661326
285.407026759107
285.4196099398542
282.9583546402574
282.9625533516104
282.9692712587825
282.9597710148895
282.9427605687942
282.9124957990977
282.8677704443259
282.8115526000078
285.1855825317355
282.7056172329225
282.6524691693438
282.6069754972816
284.9695294091719
282.5703184983508
284.9785444757007
284.9935104090228
285.0023974364896
282.6206818689071
282.609163516131
282.5718937729229
284.88108115505
284.7723466106236
282.2966157097269
282.1726786452803
282.0489762692608
284.1490508328977
284.0752791062332
281.8425570183754
284.0511530071354
281.8031128500841
281.8847733155064
281.9952852747419
284.4183745886413
284.554562440191
282.1155657145485
284.6977888498382
282.5269306845343
282.633553051614
282.7163490206507
282.7690589013886
282.795672656866
285.1273570055671
285.1322490573245
282.8530091977261
282.8752727946291
282.9204154971412
285.292991416123
285.3768907806517
285.506898582871
285.6447285044611
285.7908660126919
283.653681124514
283.8204915649453
283.966263944414
284.0942086401309
286.5353784010532
286.6268961571095
286.7154745855387
286.7930564247993
284.6202426383987
284.7204511458617
284.8093847187124
287.1493714538637
285.201764916526
285.0480818365969
285.330028075558
287.6898084562184
285.6494555814676
285.8148587318816
285.9526714488597
288.2513962734117
288.3706635484021
286.375695426884
286.5001247605535
288.7348247001383
288.8323814530117
286.8416555194389
286.7945363561002
286.8668264639956
288.898080106792
288.8632362825986
286.7828031528477
286.7369820273245
286.7253671012823
286.7182610390146
288.6496334972492
286.761633591795
286.7984350137567
286.8562272702668
286.9255489013906
288.8357825856323
288.9209421941641
287.1512368962879
287.2399918462037
287.3209539824581
287.4052207943085
287.5136908125504
289.3869077020418
289.5133811203699
287.6138109073265
289.6438425992649
289.7822083480198
289.9161346954487
290.0356509389828
290.1350860991415
290.2122390129799
288.5330776156517
288.5645543267876
288.5743905018812
288.58025021375
288.5887292896468
290.2751609925826
290.3141126031828
290.3868288510847
290.5063350875869
289.0540450303077
289.2309993806153
289.414016633674
289.5826260427099
291.3700513868218
291.4820235353987
289.7364827070908
291.5764024889542
291.6406700276161
290.0879021402203
290.1261732642668
290.1614774788532
290.1909545396575
291.7650818509295
290.3151222353563
290.4038894743362
290.5145595068833
290.6385887200097
290.7669013822944
291.015278831324
290.8885767445352
292.6001314415831
291.2642309559821
291.2043426203983
292.7290324564284
292.6996843769497
291.2832576017723
292.6636272570871
292.6211114422504
291.2049781101734
291.2066781307844
291.2543414044577
291.3394118315366
291.4493142028187
291.5666200703267
293.0998709924857
291.906855470931
292.083608475763
292.2239763498858
292.3538449442179
292.4512333737781
292.5111449447573
292.5417026545426
292.5926104459637
292.6634002936417
292.7634475489841
292.8965403902915
293.0703910610042
293.2684995123016
294.7227428987948
295.0595030829451
294.4174785811914
294.5707996510832
310.5729536621027
311.975574016398
311.8776223368669
310.9683667592568
310.6898126008744
311.1855206207361
310.998320785503
310.820700373445
309.9971508308571
309.8821685927171
309.7445730021146
309.5924013986258
309.4279958013285
309.2652440759726
309.0922789136062
308.9321773955004
308.8001541640598
308.6722334631525
308.5367805942363
309.1298924728709
309.0021416690568
308.8494725953713
308.6698093364776
307.6901919322223
307.4984452573593
307.2987754298158
308.0107233461294
307.8573296154754
307.7042026892779
307.5319062378678
306.5701050997275
306.5700386659705
306.5315872857031
306.4422285248118
306.2989151824609
306.1298878466359
306.8816146283679
306.7828825118728
306.6847515156445
305.8437798219674
305.8337905798994
305.8166904166062
305.7653426704463
305.7124809883463
306.4644955263161
306.4433547142391
306.4273694337689
306.4138182210095
306.3859447516895
305.6790057091118
305.6881417466444
305.6848448814917
306.3714205446981
306.3326655301354
305.6328236400309
305.6337156175295
306.3202238103041
306.3266647378406
306.3287402202476
306.3276484529833
306.3109872299759
305.6720881549653
305.6723075874768
306.3128354864808
306.3147021379871
306.3059928319735
305.7195915527058
305.7485382900749
306.3744756236885
306.4123070689787
306.4526046492252
306.4795898793453
305.9954652177199
306.5553793085738
306.591034559424
306.6283989151855
306.6617316829514
306.6935507185475
306.7250487519074
306.7521595675385
306.7807289111631
306.8098558946028
306.834992319563
306.8556148973298
306.8645177005014
306.3918175728035
306.8971148433164
306.915382518129
306.9364708475247
306.9605227620618
306.9812759266188
306.537856977737
306.5690807138731
307.0847877359
307.1269223292419
307.1748015110048
307.2229860727192
307.2725224869253
307.3140905888173
306.9258779497678
306.9825106205854
307.0436599808929
307.1052855886633
307.1394700058476
307.5981541160849
307.6265868978044
307.6595912146097
307.2672763957754
307.7568737206496
307.8117447578127
307.869748355566
307.9249562455219
307.5633499038992
308.0486910231278
308.1124199537183
308.1732717164442
307.8260532730956
308.3131113606897
308.3877544286939
308.465333845268
308.5412960807539
308.2276667143583
308.7020625538248
308.7795729650302
308.846148307547
308.5149567773041
308.5715441269818
309.0368833962152
309.1025587246777
309.1761338922106
309.2575310972987
309.3429086387158
309.4307949632224
309.5217838300556
309.6183357569294
309.719746349259
309.8230510279661
309.9209968819803
309.6472333305427
310.0056042027966
309.7246473576766
309.8110427437519
310.252633709763
310.3224798434698
310.0221077564152
310.0899080298771
310.1573384455079
310.2213541532282
310.6513649874093
310.7092519529332
310.7692957373081
310.8321584074067
310.897111955432
310.9652617949748
311.0393317341498
311.1148533778555
310.8272762069369
311.256867503307
311.3246759260675
311.3905507091567
311.1006308224657
311.5253024262852
311.5911302475449
311.6558877351127
311.7218365369151
311.4408614333199
311.5024596628697
311.5691935572825
311.9592144043227
312.0018129859039
312.0375199199002
312.0782886036547
312.1266707093096
312.1808148793523
311.9011066835147
312.2868510760414
312.3375706344611
312.3894748380309
312.4433317625064
312.5050042001367
312.5742719370396
312.3300371411759
312.4014014500738
312.7639486169023
312.8200016346404
312.8705080698076
312.6230881382583
312.9515379314893
312.9908087719188
313.0266665626873
313.0580465971475
313.090299855364
313.1243072389436
313.1605985681113
313.1982564040869
313.2394182321348
313.2835892852203
313.3327082818707
313.3820616531486
313.4341187109144
313.4888505209564
313.2843683499182
313.3243445694004
313.3592399030287
313.3869008337131
313.6571311478388
313.6850565717756
313.4692465875476
313.4863609763942
313.727777185494
313.7333594193847
313.7429932725637
313.7496053880461
313.7597341675892
313.7730965260048
313.7869275156829
313.8006232349125
313.5834042171199
313.6054251035245
313.6220991759334
313.6309399677476
313.6444995633942
313.8956060904895
313.9186958434101
313.9389813508779
313.9556215991364
313.9669364837524
313.9728115066296
313.7528227721074
313.9852430771122
313.9946504251871
314.0004296108564
313.7910153083697
313.8111223774591
313.834447641904
313.8575239911464
313.8687562998516
313.8896067849503
314.1342359085028
314.1534010596021
314.1715453681788
314.1759288023667
314.1685030339398
313.944061217108
314.1427195776982
314.1173532102692
314.0856199892623
314.0501318933227
313.7949099605675
313.9765284277854
313.9395206045151
313.9027070512959
313.8715489342813
313.8357128404984
313.8120568987839
313.797549830537
313.7734242906744
313.7505947022982
313.7440375320652
313.7487378095019
313.7656710075469
313.7891029310701
313.8124882255674
313.8312409350282
313.8359221604578
313.8275780695924
313.3852586287319
313.3941920460758
313.8870391342616
313.9557290738398
314.030025194383
314.1134504569427
314.1800157711025
313.728979807704
314.325844325056
314.3869072542506
314.4387240179448
313.9292996695239
313.9685943534093
314.003727606627
314.6463378560836
314.6813118681061
314.7006233865653
314.0858942836294
314.1217128147993
314.9045352505008
315.0666690653422
315.2691068284602
315.4916705080431
315.7170750115479
315.1367203238145
316.2154621648496
316.464376457684
316.7277068190348
316.9907011863322
316.3305270755774
316.6366689459892
316.9738197897653
317.3534810644761
317.7831133262992
319.3690595021208
319.8396489200925
320.2747609564279
319.4604990636294
319.7785320280933
320.0870892104914
319.5140895786648
320.6652972072087
321.0093551961892
321.3867881637905
320.7096957349472
321.8506818152367
321.8605874182554
321.7174743231265
321.57471425753
321.6184568159757
321.210852470993
321.9008966712427
322.3816584491827
322.9563656533764
324.1368125164325
326.7931297005505
330.3981514402955
316.3600426260564
245.4456713537766
190.6565584545145
187.0568133660037
187.0768356536288
187.7312347450159
188.670133635808
190.809389654819
194.0418753034793
198.6877440944777
205.8177887240848
216.8885722540006
231.97019052789
257.2132506402351
261.1341522367176
259.4657932179313
266.6325678041424
325.6402408263635
282.2842096622993
323.7267042368524
292.9150821239904
321.9279970170152
320.0301645931836
299.8324835394764
318.5187750421867
303.8986765416781
316.8576471783205
308.8048277888989
310.0030672267154
314.8618476026579
310.5332442042941
313.0893365236166
310.4961269884581
312.1614095738093
310.2756266403884
311.4825085342803
309.8604596994119
310.6282886672464
309.6918638248046
309.3194375907755
308.6922433443506
308.7094231837735
307.824136378506
308.0630813374524
307.0963487008569
307.4032788775389
306.7486411518748
306.488159720784
306.3944101797812
306.1028356441299
306.0868840437529
305.4844120261999
305.8170193176898
304.8662349558425
305.6289087261599
304.2563074496969
305.5464459037679
303.5923372374091
302.9625558235448
305.4283650313795
302.4010169380027
305.5773026368904
305.9120206138181
301.9144108165098
306.0055490768985
301.5037309759259
306.0961101499178
301.1488203000267
300.7705982817811
305.9760349590975
300.3902670767127
305.9671232970655
300.0052743443488
305.9442228191626
306.082877436445
299.6229588304155
306.0092556026009
299.241046077539
305.8939182280885
298.7893722865417
298.3981719051309
305.5909174340831
305.6813379634823