# Wall shear stress
# Time        	patch         	min           	max           
5000          	lowerWall	(-3.939396e+00 -8.560356e-01 0.000000e+00)	(-3.259722e-02 4.440763e-06 0.000000e+00)
