/*--------------------------------*- C++ -*----------------------------------*\
| =========                 |                                                 |
| \\      /  F ield         | OpenFOAM: The Open Source CFD Toolbox           |
|  \\    /   O peration     | Version:  v1912                                 |
|   \\  /    A nd           | Website:  www.openfoam.com                      |
|    \\/     M anipulation  |                                                 |
\*---------------------------------------------------------------------------*/
FoamFile
{
    version     2.0;
    format      ascii;
    class       volScalarField;
    location    "3000";
    object      alphat;
}
// * * * * * * * * * * * * * * * * * * * * * * * * * * * * * * * * * * * * * //

dimensions      [1 -1 -1 0 0 0 0];


internalField   nonuniform List<scalar> 
18230
(
2.112794238611772e-08
5.102009395044595e-09
2.183885588676804e-07
1.659586360278459e-06
8.139511469742085e-11
8.948697569320212e-08
1.992799533534698e-08
2.192106102837067e-06
3.755724022961958e-06
6.82506985688032e-10
1.22653048747311e-08
1.928245464166349e-07
6.742578401177909e-10
6.843017995009753e-07
4.388274866103999e-06
5.904020666399796e-06
1.131129282184187e-09
4.971814287718551e-07
2.888943335988659e-08
2.67591037543008e-07
1.076903169483229e-09
9.155335692264658e-08
1.148272205931497e-06
3.856863736522225e-06
7.964330555895543e-06
1.050199058580238e-09
3.861061845593071e-07
4.99816007260218e-07
4.725189111570015e-08
3.810342353676084e-07
4.849252059371937e-09
5.697932198258471e-07
2.926791755487458e-07
1.430953973276644e-06
4.072913635696392e-06
9.555196327901259e-06
1.420453605115111e-09
5.257083410202146e-07
9.177121180585466e-07
1.367894086045349e-06
6.743588961157036e-08
4.960109825533202e-07
1.137947492642513e-08
1.629839726412519e-06
1.299154045340116e-06
4.076283964155893e-07
1.559416406257843e-06
5.592414949408486e-06
1.071978689842991e-05
1.470727270660061e-09
6.21528306380724e-07
1.139848755176219e-06
1.084237536798388e-06
9.03458015793397e-07
9.407304565164648e-08
6.271734852730872e-07
1.200576191378307e-08
3.035099964978386e-06
4.603987403916368e-06
1.502452423535531e-06
5.342342716114324e-07
1.993733393721895e-06
7.198236496065852e-06
9.992006694127213e-06
1.329817827923559e-09
6.461012877526137e-07
1.187240931712742e-06
1.062083647936496e-06
2.330385910034392e-06
1.537237796298369e-06
1.293316607411665e-07
7.849246994975614e-07
1.425831115928388e-08
2.992142623932758e-06
6.922590814161995e-06
7.916222674773453e-06
1.783546559698612e-06
7.19027975399193e-07
2.351023631596543e-06
1.067244201464088e-05
8.714174968188297e-06
1.402808835776321e-09
6.383651321236095e-07
1.209878009826659e-06
1.148515755381471e-06
2.466998710165535e-06
2.639675814104172e-06
1.227902208958394e-06
1.798469887293658e-07
1.052186703618053e-06
1.323352866067963e-08
3.291834161646462e-06
7.208579430327106e-06
1.199700831448595e-05
9.894524965219204e-06
2.246858278485936e-06
9.023770982640831e-07
2.835287531084022e-06
1.078744280330149e-05
8.452030886057024e-06
1.457989617393064e-09
6.204593924335585e-07
1.246878189523279e-06
1.158544638387433e-06
2.650988239278025e-06
2.480646537901967e-06
5.073691706181614e-06
1.601458881713508e-06
2.653859386395085e-07
1.364945412951247e-06
1.338834605911258e-08
3.273635564314726e-06
7.628569536000735e-06
1.249238724417622e-05
1.826686890140097e-05
1.17650767565922e-05
2.754474069397235e-06
1.127982052539699e-06
3.144307984024982e-06
1.120253949212936e-05
8.758800317803806e-06
1.465986102578434e-09
6.372637802971168e-07
1.316598631574197e-06
1.140708896767099e-06
2.79084258077887e-06
2.374399554411199e-06
5.24910165201272e-06
7.033624039690365e-06
1.583595720303739e-06
3.733197073496545e-07
1.696755117442779e-06
1.512037884132634e-08
3.203828779406898e-06
7.656413399122583e-06
1.297298143663616e-05
1.894755627558794e-05
2.595637181905596e-05
1.404064296951819e-05
3.807306550248975e-06
1.446941530156358e-06
3.462775568674031e-06
1.189610661551299e-05
9.363834300588e-06
1.472964329667484e-09
6.429553574728047e-07
1.404161458698519e-06
1.360925360215054e-06
2.929576199999988e-06
2.598488701206011e-06
5.592556482784903e-06
5.605851577781014e-06
9.588758928315698e-06
1.982896955869204e-06
4.847852583031718e-07
2.059174720702428e-06
1.516631891532332e-08
3.283121554304307e-06
7.566004540501162e-06
1.299054361766517e-05
1.949033366876886e-05
2.67420008840756e-05
3.51680323593458e-05
1.583452740325911e-05
4.787690065649361e-06
1.827753365802648e-06
3.944164824112127e-06
1.286656989210313e-05
1.070921701632385e-05
1.755874299856499e-09
6.896420000823315e-07
1.530660814701919e-06
1.451792857509511e-06
3.14493893356204e-06
2.777623327122352e-06
5.846539177913617e-06
5.571298951963985e-06
9.744850727415907e-06
1.239146645934302e-05
2.105558793189901e-06
6.071141168242009e-07
2.468403867799878e-06
1.475544974576945e-08
3.297180938700567e-06
7.724999021191459e-06
1.289455794221996e-05
1.958597882851341e-05
2.748986570470064e-05
3.61561744143153e-05
4.5978463476965e-05
1.815294468417547e-05
6.076054126485992e-06
2.278976227801595e-06
4.72259288862101e-06
1.403316031651706e-05
1.031744478193742e-05
2.268592993795166e-09
9.339145144047856e-07
1.785808664139341e-06
1.620870172356761e-06
3.397063510332528e-06
3.076947294446078e-06
6.151019301928466e-06
5.78354013428342e-06
1.022854512584448e-05
1.208776823404605e-05
1.568686921645497e-05
2.640191309383521e-06
7.63036178405282e-07
2.955887903119254e-06
1.63571349525636e-08
3.241791693354326e-06
7.668829229326855e-06
1.308836943288487e-05
1.95599771615462e-05
2.764352475894971e-05
3.712365080298117e-05
4.742413953264445e-05
5.862989018349596e-05
2.119475232354073e-05
7.72991051800537e-06
2.881725442555158e-06
5.824904580987538e-06
1.547792944940577e-05
9.194297868838316e-06
3.676397009779777e-09
1.160803795356214e-06
2.354697613876856e-06
1.694618410757686e-06
3.730819834091267e-06
3.126178749775216e-06
6.539240438347172e-06
6.205974007007167e-06
1.064341869967023e-05
1.223298892573054e-05
1.575889162341605e-05
1.936069137836031e-05
3.110433893225946e-06
9.679947987681882e-07
3.57222554152492e-06
1.587413037731918e-08
3.435103586038828e-06
7.488444314793988e-06
1.294980877116433e-05
1.973913035551212e-05
2.76590651988543e-05
3.732827699118129e-05
4.853281961670128e-05
6.047783284512273e-05
7.334284433046794e-05
2.453146357268165e-05
9.542850434012365e-06
3.694957491273217e-06
7.341691921752116e-06
1.728159963760921e-05
8.779558634835085e-06
5.413292077060348e-09
1.830519905175999e-06
3.033707687487632e-06
3.475789555391e-06
4.304649232307686e-06
3.334757447538449e-06
7.01950608189651e-06
6.148327899462759e-06
1.119726449161645e-05
1.286930622561577e-05
1.645933932087484e-05
1.945771301372446e-05
2.350127162852885e-05
3.806248715560728e-06
1.240128280595702e-06
4.363861485790396e-06
1.58812344976744e-08
3.427609385096955e-06
7.644914798024792e-06
1.271056852891427e-05
1.961409317493986e-05
2.779602758981274e-05
3.734470176193128e-05
4.87357713542407e-05
6.189251910252627e-05
7.564641456629088e-05
9.003241483570858e-05
2.868789530395827e-05
1.229925864503239e-05
4.966885082261519e-06
9.490106895891228e-06
1.955299426822618e-05
9.062015814656024e-06
5.445060365385826e-09
2.250273516175553e-06
3.963960087697373e-06
4.872474153972721e-06
5.631242296823688e-06
4.034876503670112e-06
7.573133305133865e-06
6.762526050444948e-06
1.17852194597392e-05
1.32649539371665e-05
1.706464162912167e-05
2.028883501152632e-05
2.366400229266128e-05
2.835033655591262e-05
4.582231425096526e-06
1.610435577084668e-06
5.416033032857465e-06
1.588086576484058e-08
3.277781575250204e-06
7.66569910987076e-06
1.287185814126809e-05
1.926696747768502e-05
2.769565527792165e-05
3.744211731587548e-05
4.877369714636482e-05
6.213032176745458e-05
7.744579498674836e-05
9.316027920187376e-05
0.0001040368431372739
3.36137568793472e-05
1.618672612844615e-05
6.54533972547609e-06
1.2447506300202e-05
2.248164260987259e-05
1.011181047686841e-05
5.9454484835257e-09
2.167415836519614e-06
4.445850638370221e-06
6.50053259253833e-06
7.407788009553553e-06
4.976374622014824e-06
8.581988644937521e-06
7.325277240984571e-06
1.252004894575448e-05
1.371488677902178e-05
1.788719463369404e-05
2.103036748493803e-05
2.461948667434227e-05
2.865874956781383e-05
3.401586665467218e-05
5.577980088166621e-06
2.13325364065339e-06
6.800335803693614e-06
1.520223617804263e-08
3.368519440863933e-06
7.421715951147766e-06
1.274656589524743e-05
1.937740550619036e-05
2.719673040823424e-05
3.731331543888142e-05
4.887163359457473e-05
6.226894392871744e-05
7.786312723401546e-05
9.532203675651667e-05
0.0001130222787370259
0.0001173234420020027
3.950039271698922e-05
2.151863666846711e-05
8.692483141325228e-06
1.656901223330283e-05
2.666527724465873e-05
1.166781910891824e-05
6.684626512159033e-09
2.230130814418806e-06
4.325993367034026e-06
7.104259382330111e-06
9.477553694874468e-06
9.818929554252112e-06
1.078199229878836e-05
7.977031500999856e-06
1.334140990993362e-05
1.408342352141412e-05
1.878145640175067e-05
2.199274703330549e-05
2.551688315837535e-05
2.975515405304293e-05
3.453641409167369e-05
4.085819646153198e-05
6.787115796929614e-06
2.857309507758104e-06
8.63319753772139e-06
1.740590404714637e-08
3.356096208924247e-06
7.448087172077014e-06
1.249801178830637e-05
1.924753396359311e-05
2.726180224689051e-05
3.684084475362088e-05
4.868367617259698e-05
6.238501284861791e-05
7.7926485272359e-05
9.601188683695813e-05
0.0001156028421921081
0.0001352332953990386
0.0001342729865639124
4.606582865452114e-05
2.910579708169344e-05
1.158093538509555e-05
2.254572093126797e-05
3.256627878889236e-05
1.324773330929955e-05
7.867093059612126e-09
2.350043521899953e-06
4.507761598660942e-06
6.840285873321411e-06
1.017523970989149e-05
1.292200207690063e-05
1.362669814031314e-05
1.087404093949301e-05
1.479102573408841e-05
1.507890990165224e-05
1.98177905343111e-05
2.303928324330112e-05
2.663792365152603e-05
3.085268380811174e-05
3.577592004100106e-05
4.164103947220604e-05
4.899176874657748e-05
8.308000765608542e-06
3.873345321518873e-06
1.08120394847507e-05
2.096663593007128e-08
3.605184417895243e-06
7.608607857560523e-06
1.259713608456882e-05
1.883047153021305e-05
2.715539449645238e-05
3.684369748399064e-05
4.818035122221092e-05
6.203800316948669e-05
7.811931769835897e-05
9.612332802078165e-05
0.0001164935122353712
0.0001383111692842046
0.0001597224538690337
0.0001510314689159163
5.431495802805429e-05
3.895412333536639e-05
1.549481673319219e-05
3.106955364545019e-05
3.956224939820489e-05
1.522472005172822e-05
9.781658368298629e-09
2.531064920646193e-06
4.7856099465398e-06
6.937230856785446e-06
1.010087781818474e-05
1.268918885305702e-05
1.693458640212891e-05
1.468752553092642e-05
1.798856368727985e-05
1.619664701433153e-05
2.101808002528649e-05
2.425842160695408e-05
2.789304128247916e-05
3.2185086600137e-05
3.713258723868637e-05
4.307888182432981e-05
5.012268349550099e-05
5.890040624348011e-05
1.010759149593129e-05
5.291949333465938e-06
1.393526056850917e-05
2.357494318330434e-08
3.834515942389669e-06
8.370457005524838e-06
1.302123849875865e-05
1.894056450928709e-05
2.65576519995906e-05
3.652138695546384e-05
4.813918654990274e-05
6.150201836258062e-05
7.76706243821505e-05
9.631285310007296e-05
0.0001168568492478036
0.0001394978394895199
0.0001634087543584075
0.0001859890437699928
0.0001743570109827193
6.292891543778493e-05
5.589009422414339e-05
2.012195860403549e-05
4.317364568039086e-05
4.807755647365075e-05
1.773961511441796e-05
7.987761006998788e-09
3.519936132319077e-06
5.251183069652126e-06
7.84660855774103e-06
1.076164246685997e-05
1.074161793096815e-05
1.836597453462088e-05
1.931922394322065e-05
2.239271395489426e-05
1.914664020542684e-05
2.313473561555626e-05
2.571982359721025e-05
2.933104142070011e-05
3.370334490945522e-05
3.871778079395973e-05
4.474619256127646e-05
5.184753720528542e-05
6.049758334785146e-05
6.8202857928751e-05
1.238375486768985e-05
7.280791068684195e-06
1.842607154975373e-05
2.486854542481378e-08
3.920760620239049e-06
8.875366997304099e-06
1.426385170404045e-05
1.976205720906281e-05
2.666794612968696e-05
3.590524559573733e-05
4.77149651308504e-05
6.141640071389003e-05
7.713160696765163e-05
9.58772727680932e-05
0.0001170744765061626
0.000140069935555295
0.0001649584409218911
0.0001904434422299083
0.000213362231791605
0.0001945980595725163
7.435430017695306e-05
7.457902037372416e-05
2.52878126258659e-05
5.746232578725966e-05
5.856715167642244e-05
2.094976168354176e-05
1.035181154593331e-08
2.704916797822073e-06
6.138043855398556e-06
8.572932692204977e-06
1.144772066583884e-05
1.2161306202227e-05
1.88721729391608e-05
1.91533542848105e-05
2.743320980366596e-05
2.492270722336677e-05
2.783021022566333e-05
2.825711531546031e-05
3.106805277687669e-05
3.545091909135883e-05
4.051886113077593e-05
4.665057583653506e-05
5.387670570520388e-05
6.254682282780937e-05
7.300913570772834e-05
7.82562221195848e-05
1.518855950679673e-05
9.977728306759222e-06
2.521052576112171e-05
2.444130473506321e-08
3.935613916256176e-06
8.849928407697137e-06
1.49923533660199e-05
2.157717776960944e-05
2.808154626213667e-05
3.608164326923044e-05
4.715301923134889e-05
6.094481689125879e-05
7.696419833597194e-05
9.532879870276341e-05
0.0001165494332015735
0.000140354213079331
0.0001657356172725157
0.0001924258617530607
0.0002186122048449612
0.0002407008230955062
0.0002247163258701263
8.355435229828415e-05
8.157886490686379e-05
3.135584344072332e-05
7.459259262915452e-05
7.048319438815341e-05
2.500177809782352e-05
8.514061860526522e-09
3.689899047078872e-06
5.440686022248126e-06
9.334004315206438e-06
1.244536845682502e-05
1.358915471271683e-05
1.990109475740281e-05
1.867331799226339e-05
3.002758662232926e-05
2.897692644459774e-05
3.436820553209457e-05
3.391072912936871e-05
3.40612548251419e-05
3.753029663865928e-05
4.264018324027918e-05
4.882204093686648e-05
5.615576482144594e-05
6.500952344810507e-05
7.550435321879987e-05
8.810132300162461e-05
8.87760421431261e-05
1.862322283152714e-05
1.34864496626778e-05
2.758680954716347e-05
2.846015052611079e-08
3.931858392588875e-06
8.639937268136995e-06
1.484159949775056e-05
2.258299153691261e-05
3.052727882862873e-05
3.810583123976393e-05
4.736560378385634e-05
6.037912072936056e-05
7.641010869508248e-05
9.502865695735042e-05
0.0001159911270189106
0.0001397608153047199
0.0001660494415231065
0.0001933459463214595
0.0002210556116182731
0.0002467137512886395
0.0002666480811061274
0.0002506465893516592
9.708185815308944e-05
8.559377530971596e-05
3.936624609028503e-05
9.701902791824589e-05
8.406446401365373e-05
3.007725362689525e-05
8.816054852641583e-09
2.508533234915059e-06
6.264218077502773e-06
8.712245813263793e-06
1.311363323775951e-05
1.66395443301337e-05
2.124592449878287e-05
1.908318561532773e-05
3.127498886771804e-05
2.896011947795831e-05
4.2278924592667e-05
4.193881477528853e-05
4.099568968053607e-05
4.119042345912249e-05
4.511328781493244e-05
5.139076187928048e-05
5.87551322901984e-05
6.775842722630232e-05
7.846596233244594e-05
8.331686936450805e-05
9.058574325224296e-05
9.455467952714927e-05
2.274112490596095e-05
1.790447861550378e-05
2.676501075429509e-05
4.078382029562479e-08
4.292644271910546e-06
8.620271128133983e-06
1.440412571405662e-05
2.223043993635552e-05
3.172336278273423e-05
4.123131013121263e-05
5.00283457203344e-05
6.061455942966146e-05
7.581933353083122e-05
9.436041160305037e-05
0.0001156631698898567
0.0001391360237781275
0.0001655194350280142
0.0001936875008538853
0.0002221428850780109
0.000249457589224214
0.0002733014805207795
0.0002891751404694088
0.0002799509229490222
0.0001065783009307121
9.3020351027714e-05
4.82948207160796e-05
0.0001268117507342519
0.0001007186412213086
3.620142413102406e-05
9.462403081834636e-09
2.570040232999169e-06
5.103079045839043e-06
9.320664606342832e-06
1.258588330789401e-05
1.688381212784334e-05
2.230482419742829e-05
2.156182635004366e-05
3.30908976995328e-05
2.899793305680487e-05
4.667281658110983e-05
4.402195521243232e-05
5.092468165253146e-05
4.955973537184767e-05
4.950561174666582e-05
5.442197125535543e-05
6.177039730611692e-05
7.088492777227024e-05
8.176211499951148e-05
9.130317878762758e-05
8.476084262260804e-05
8.625778624553947e-05
9.581089716295469e-05
2.730729905385852e-05
2.294289608302213e-05
2.520780581767168e-05
6.166984081419335e-08
4.940145596819653e-06
9.572698870956062e-06
1.440263270935609e-05
2.14532486022837e-05
3.103715889390201e-05
4.250298740757191e-05
5.371880102063986e-05
6.381198079980418e-05
7.603271142098219e-05
9.361771932621277e-05
0.0001147248725858363
0.0001387351043460672
0.0001649004619420383
0.0001931469419384582
0.0002223986717496796
0.0002506481084286478
0.000276332956431869
0.0002962570698001042
0.0003063899370158577
0.0003067488128082109
0.0001210422059391564
0.0001000588071523635
5.593253238155519e-05
0.0001672079349466487
0.0001182331182717929
4.371800551703981e-05
1.024757473406514e-08
2.620657672862986e-06
5.152271737462057e-06
8.298931284228207e-06
1.309974534023669e-05
1.579317930092662e-05
2.2776658482106e-05
2.430011084811427e-05
3.488312416770345e-05
3.110447994936143e-05
4.883846553619023e-05
4.485921022718018e-05
6.32863563144242e-05
6.170451527379843e-05
5.975656992751138e-05
5.974292542373819e-05
6.547232442025643e-05
7.445916284801289e-05
8.546427168439007e-05
9.873583677783331e-05
9.514236495586412e-05
8.456654974038915e-05
8.229660023289067e-05
9.36296779100554e-05
3.206290830475219e-05
2.758376771056386e-05
2.364307510749849e-05
6.339420799321106e-08
5.488625497031934e-06
1.112105863974371e-05
1.590265869294212e-05
2.137630773642181e-05
2.996935843317747e-05
4.134516688171249e-05
5.505386478588476e-05
6.804652523074496e-05
7.98314555910121e-05
9.373593345246318e-05
0.0001138325115101985
0.0001378371393500856
0.0001642389773614528
0.0001924809926139963
0.000221821574340604
0.000250763902561146
0.0002715018140649695
0.000299666883731884
0.000299851053608899
0.0003176527823869285
0.0003063005738189891
0.0001237956067536741
0.0001000003134193012
6.032351839922725e-05
0.0002222775829926489
0.000136592376285852
5.210525188660072e-05
1.057610517604333e-08
2.708828126143161e-06
5.256872184547657e-06
8.210511008037186e-06
1.205979989814744e-05
1.547251775801862e-05
2.257643043058286e-05
2.359953440507758e-05
3.594572726791653e-05
3.432043125486562e-05
5.131668519828893e-05
4.496060284564176e-05
7.015609180403087e-05
6.609139192174677e-05
7.457151286813539e-05
7.204693413433731e-05
7.183312348483653e-05
7.892376928918673e-05
8.970493813408625e-05
0.0001031469829817366
0.0001062224603738721
9.592737085502047e-05
8.493396026546641e-05
7.884460194537766e-05
8.85708542152111e-05
3.667987613083449e-05
3.099252528420153e-05
2.380992277121618e-05
1.139233402563701e-08
4.546718463356848e-06
1.182021252906613e-05
1.803935603884684e-05
2.373580634326876e-05
2.993722917002652e-05
3.983328921770845e-05
5.331397031897804e-05
6.954928204603732e-05
8.451821356473826e-05
9.800593875722352e-05
0.0001137485742333935
0.0001364301603310995
0.0001628479281449625
0.0001914823819059846
0.000220987938064872
0.0002500033438900666
0.0002641166580982047
0.0003013230175042529
0.0002908428268130359
0.0003251230623516547
0.0003085595026953792
0.0003007260943879888
0.0001123879413628552
9.032143611760983e-05
6.013018621043621e-05
0.0002722717863155873
0.0001533582713716787
6.258212002720965e-05
1.096445097651117e-08
2.732701651628737e-06
5.400746435475384e-06
8.319554186293734e-06
1.229553662888305e-05
1.453613122215555e-05
2.292670702815626e-05
2.288558921380281e-05
3.656704206651878e-05
3.570165074975926e-05
5.336210274783931e-05
4.845970460257781e-05
7.347061177059078e-05
6.756659742121745e-05
9.310980004163405e-05
8.993987619056636e-05
8.66741304532992e-05
8.662272647574113e-05
9.506203931796931e-05
0.0001081716821954988
0.000124056601900836
0.0001076987341708949
9.701717037364088e-05
8.569016773521997e-05
7.714727526672146e-05
8.349356896555687e-05
4.08611502300757e-05
3.252727292733235e-05
2.599216533810233e-05
3.133328629033729e-09
1.578495705938198e-06
8.989166962157243e-06
1.862670536317461e-05
2.63751138502554e-05
3.309414018839035e-05
3.976246288477505e-05
5.130288346061572e-05
6.703557450436713e-05
8.602617235473998e-05
0.0001031184104857738
0.000118331463020073
0.0001357419254698212
0.0001606466625745936
0.0001898243347132077
0.0002197105345719268
0.0002488663913016845
0.0002586806532650231
0.0003015111400632189
0.0002845718084307452
0.0003287029622616722
0.0002966993791318409
0.0003088435127899105
0.0002724674774401286
8.940533075106594e-05
7.391868391220293e-05
5.651164209637301e-05
0.0003109303257651377
0.0001752968423125109
5.945016772343029e-05
1.132978412334182e-08
2.75925943474538e-06
5.399600820420273e-06
8.68380909985256e-06
1.261499844360561e-05
1.434701064215693e-05
2.232167633773194e-05
2.360155297113134e-05
3.680685388197128e-05
3.624764174916047e-05
5.47805984599647e-05
5.086532384270967e-05
7.652899244920105e-05
6.962763511679955e-05
0.0001030408544140764
9.988118495667437e-05
0.0001082394930217028
0.0001043325250698631
0.0001043179700831811
0.0001145601365461385
0.0001300061121991258
0.000125966304745208
0.000109545744242108
9.78772457207568e-05
8.755055702137381e-05
7.744003188024537e-05
8.045995280337806e-05
4.529634891985904e-05
3.454531697084437e-05
2.458932902318508e-05
2.668731510188428e-09
7.953596962117208e-07
3.107836033195512e-06
1.366131170156953e-05
2.643575181788413e-05
3.594617997000344e-05
4.364565043369879e-05
5.096937577149251e-05
6.438914696228794e-05
8.246292225489844e-05
0.0001043471266538318
0.0001234013245152175
0.0001401204303531971
0.0001593565532599113
0.0001865416592935189
0.0002149043878817867
0.0002471211967331838
0.0002547608724319661
0.0003005004102886326
0.0002788497665190528
0.0003269205399199204
0.0002880832548802271
0.0002926706794636109
0.0002778906373621905
0.0002364877396602808
6.431868901309948e-05
5.608035004486288e-05
5.012299861717275e-05
0.0003349046643100446
0.0001577092116706247
8.778970402063596e-05
0.0001119296464717059
1.160171566540166e-08
2.782644043766916e-06
5.489216294430929e-06
8.664418228524939e-06
1.281429654554603e-05
1.512421563962978e-05
2.274890960244366e-05
2.274235000984356e-05
3.700075281980111e-05
3.671583195422741e-05
5.55248634455104e-05
5.347843120365397e-05
7.897009608794283e-05
7.303874439432201e-05
0.0001076327960552673
0.0001019507108601638
0.0001349761641823845
0.0001300352770266227
0.0001253786003344927
0.0001256916275394829
0.000137570993077658
0.0001435168460771323
0.0001269590197245103
0.0001106445040310138
9.902650509619603e-05
8.904235832759682e-05
7.904328597357382e-05
8.227796276109259e-05
4.848818870670931e-05
2.844135113126914e-05
1.558966273064666e-05
3.053204374633354e-09
1.002505670720982e-06
1.910249954019496e-06
2.722655976655016e-06
1.877022327849843e-05
3.486929552043878e-05
4.638700378619321e-05
5.530761508313495e-05
6.375213915250211e-05
7.892000056233926e-05
9.944420573326585e-05
0.0001243231603836555
0.0001450924927529181
0.00016335131071409
0.0001837610682011365
0.0001979228241548342
0.0002444268638226344
0.0002474134385894733
0.0002987172282046748
0.0002761899501377773
0.000318193797817847
0.000280973165491078
0.0002809672245010182
0.0002696094179018163
0.000240783618169141
0.0001982662375856731
4.624840537809473e-05
4.223151398090333e-05
4.446508637860067e-05
0.0003334099115198685
0.0003032329309374532
7.184841689284812e-05
0.0001488592222750238
1.144660671603173e-08
2.795878770273098e-06
5.581712407581213e-06
8.721148331397133e-06
1.286431541305658e-05
1.571048630131013e-05
2.311114594408954e-05
2.290978571761649e-05
3.686683876584775e-05
3.720723258529309e-05
5.617031012388267e-05
5.408037814055267e-05
8.067976286880954e-05
7.710400060589371e-05
0.0001113858639081455
0.0001045617223318939
0.000149070505478158
0.0001537826127998599
0.0001560478709874409
0.0001507547197015022
0.0001438738111812623
0.0001462226942030547
0.0001410522660760996
0.0001254685847204646
0.0001110807605177485
9.906855977419865e-05
9.153395881569551e-05
8.352817113862172e-05
7.952368616155974e-05
4.596035587623026e-05
2.751143047918331e-05
1.724886228296813e-05
3.48764870690424e-09
1.335108648681517e-06
2.496844655899891e-06
2.012621057026852e-06
5.049850266561601e-06
2.357600623833846e-05
4.347352285259806e-05
5.741416902052178e-05
6.813251510488762e-05
7.774947019158648e-05
9.478702751655415e-05
0.0001181260980558978
0.0001455303433985557
0.0001677283957250872
0.0001867992067271559
0.000205661704123992
0.0002392167644684429
0.0002285351366381439
0.0002961490940677524
0.0002712383053437742
0.0003132169242440662
0.0002742603746972972
0.0002722342342934839
0.0002567789184886399
0.0002445715028112599
0.0002294004897963374
0.0001484686333856414
3.884010127490155e-05
3.885947960985014e-05
8.773851532463678e-05
0.0003521878309787259
6.616611873958498e-05
0.000291357456637251
0.0001459183105132775
9.138240226236793e-05
2.232424078772643e-05
0.0001557679695561005
1.153305435903322e-08
2.818080838784207e-06
5.618489059911958e-06
9.072092192627343e-06
1.311586652207802e-05
1.540040503984364e-05
2.348130007818542e-05
2.367029375128754e-05
3.760060157311886e-05
3.625520581677535e-05
5.651176147264853e-05
5.502966713647583e-05
8.187884512783595e-05
7.936155223125569e-05
0.00011442026344198
0.0001097847492957842
0.0001553647220145033
0.0001555830358555106
0.0001934959293843344
0.0001870204313439353
0.0001806602499260294
0.0001409213610084412
0.0001408520412798524
0.0001355060836354628
0.0001222418697106723
0.000108552050210646
0.0001003647037147061
9.607518599853426e-05
8.361684711276204e-05
8.16873928867829e-05
0.0001029414899494666
4.395616880096521e-05
5.889811333416933e-05
3.830408585430158e-09
1.561081296398244e-06
2.913012802320857e-06
3.144992056530884e-06
5.045131484715949e-06
4.091033821049613e-06
2.583213620978043e-05
5.196548904328399e-05
6.887827436164931e-05
8.177224840095684e-05
9.257495458529804e-05
0.0001117454214599757
0.0001374588139466364
0.0001673291774072392
0.0001903505341755856
0.0002097892598264202
0.0002311352024340395
0.0002367240685748195
0.0002914088613305615
0.0002678089562836128
0.0003059403700381381
0.0002696769250083321
0.0002644346475425277
0.0002472203936051352
0.0002393725443082496
0.0002342656325726546
0.0002667829031611611
0.0001276088596754183
4.036989189697289e-05
3.460486799638739e-05
1.939739810189323e-05
4.862912657201827e-05
0.0003428364118080981
0.0001181662623036186
0.0003855839114298032
0.0001137961551725986
9.979777054413477e-05
2.791777319084487e-05
0.0002448123079611448
1.337435340694042e-08
2.827367771008815e-06
5.6312898213822e-06
9.115131893270933e-06
1.31964644469955e-05
1.621077977809469e-05
2.36507666482399e-05
2.429517088907199e-05
3.814116314298306e-05
3.718684314607945e-05
5.707964482101248e-05
5.493103950715596e-05
8.310911955977286e-05
8.04403124439828e-05
0.000116811191393342
0.0001141939427229679
0.0001601767205602086
0.0001594720118046006
0.0002133826287286748
0.0002276149873035681
0.0002193315815415926
0.0001801907324211401
0.0001366056422891887
0.0001318119086056184
0.000127546113170987
0.0001155265910054739
0.0001081659841161007
0.0001033115021316371
9.38255363951675e-05
9.070673496616892e-05
0.000106651177822328
7.924040528356778e-05
4.907338156056438e-05
0.0002422352246669501
1.898730362678618e-05
4.036414295404595e-09
1.680949078303119e-06
3.159407530663645e-06
3.983955930126413e-06
5.90252197681179e-06
5.275107800553502e-06
5.584119669791894e-06
3.083307405760051e-05
5.883181734082541e-05
8.034126242487837e-05
9.578017403270195e-05
0.0001078898701479335
0.0001289872025598363
0.0001572360858530197
0.0001887624179003753
0.0002119249104945443
0.000230792233773331
0.0002398106855503694
0.0002813716603000564
0.0002597942296382015
0.0002993068707054311
0.0002663024846136173
0.0002590872457346264
0.0002386285377984349
0.0002276356772515342
0.0002367929118313989
0.0002750113523559001
0.0002629762871911179
0.0001355136081447526
0.0001206772077035263
2.054139131195891e-05
5.26436129371678e-05
3.371591713189933e-05
0.0003923033985338852
0.0002463874503011575
2.539615063331286e-05
0.0003550085353791413
0.0001040300065104062
0.0001849233404567388
0.0001755783369193331
1.180299467630069e-05
9.218332949989237e-05
1.619943190632001e-08
3.000719513827252e-06
5.759829043642965e-06
8.947665281661926e-06
1.328252364055299e-05
1.603109434019333e-05
2.393363039485755e-05
2.436160339772873e-05
3.863118991203481e-05
3.809861503140405e-05
5.808225786371502e-05
5.577166430145907e-05
8.403532210571294e-05
8.177320606136356e-05
0.0001189641920915069
0.0001167065061466407
0.000164305601006353
0.0001665258273270693
0.0002219987725463976
0.0002375708682819141
0.0002761221245888627
0.0002156270782610871
0.000174186574182898
0.0001285619537248618
0.0001212201563818864
0.0001174921104098807
0.0001136634861139205
0.0001072973389165261
9.485801852237477e-05
8.107768013873764e-05
9.773540487190762e-05
8.155949000565718e-05
0.0001013747044489418
0.0001188187164049901
5.183708628549269e-05
0.0005826220479607002
4.425493076344647e-09
1.746361625738871e-06
3.385103698278416e-06
4.857940244720785e-06
6.759830710416222e-06
5.674684737815374e-06
1.059809825501854e-05
6.727861642943026e-06
3.005604232773938e-05
6.86542196475401e-05
8.097427932809391e-05
0.0001094526679743659
0.0001229545031058072
0.0001375547462761378
0.0001752092771563687
0.0002086216525254334
0.0002308363916780908
0.000246676546352085
0.0002671840362428016
0.0002484978322858386
0.0002908693477681067
0.0002594824672756482
0.0002552112422040214
0.0002342137109771146
0.0002176944688833243
0.0002380889264781219
0.0002788579664216224
0.0003958607700349447
0.0002983202880321948
0.0001555030803957514
3.314707490566392e-05
9.219009007055012e-05
4.062985572429126e-05
3.568156956232724e-05
2.282469615736992e-05
0.0003491935554172658
0.0002057603276199811
4.12680547622319e-05
0.0004261523855858722
0.0001020579396948579
0.0001493803017685083
0.0002610842516545659
1.948682659025747e-05
5.224178122582506e-05
1.275703396047274e-08
4.209939032455955e-06
6.204732513945911e-06
9.366120887687276e-06
1.330293965206873e-05
1.62705352868387e-05