/*--------------------------------*- C++ -*----------------------------------*\
| =========                 |                                                 |
| \\      /  F ield         | OpenFOAM: The Open Source CFD Toolbox           |
|  \\    /   O peration     | Version:  v1912                                 |
|   \\  /    A nd           | Website:  www.openfoam.com                      |
|    \\/     M anipulation  |                                                 |
\*---------------------------------------------------------------------------*/
FoamFile
{
    version     2.0;
    format      ascii;
    class       volScalarField;
    location    "3000";
    object      k;
}
// * * * * * * * * * * * * * * * * * * * * * * * * * * * * * * * * * * * * * //

dimensions      [0 2 -2 0 0 0 0];


internalField   nonuniform List<scalar> 
18230
(
12.53389337268778
1.802172831913723
24.33994728393926
35.68151573259885
1.037331127286074
9.065242313309264
12.71465739027326
65.21935679224121
45.06002868494069
2.780003256252808
6.447024137358174
15.02210813444774
2.493169282995408
79.22691518979354
78.57987942094478
50.6773638228866
3.815563007544023
14.83431193600599
10.46777342311731
18.74902586349889
7.867091938615358
14.26902789847975
72.53259948470357
84.82182923445471
54.30010071628453
3.395499766919456
20.72261161214995
15.84389472972716
12.11057180935852
21.69681114520302
12.24041496170376
31.25311522329641
22.10189147753783
75.1621962845922
83.33051053198672
56.89639984741616
4.19587319336084
17.25190198783524
16.81123620630554
15.74544790133753
13.13308655641635
24.7292002726767
16.99681562051823
47.83652873521537
43.97721805889906
28.62096874553329
80.37370890757082
74.37909552660254
60.21206448333278
4.354798522607966
18.82962641778072
15.29759721075192
19.25200158727122
15.2616148640662
13.94714619963924
28.47982405241278
16.07025728573758
54.6717540475516
60.60413439610262
52.80637861923232
35.5722407417524
80.9570347784292
67.53969912887359
65.74352794547976
3.946741664778
19.5686153159833
15.8244833980422
19.58055844313813
18.00393573674589
16.15265965807225
14.73374181499748
33.64979624074797
17.73195731099772
51.55076449287687
72.94026935709171
71.76913226628383
61.98473171848089
43.01619474866315
80.73731978877704
64.09694841029625
72.76769340402718
4.031211798719391
20.4027698296617
16.10802177315636
20.05365069670744
18.32080734607957
20.52878769398016
16.9028934645163
15.542538349783
41.25764388630878
16.87648806880358
54.59037825313218
74.5613746922271
89.35906846960462
83.48636800455348
72.03576648440966
51.11574263455915
79.88347126128009
63.1156635059843
81.3741845127726
4.015837305656135
21.44008371927418
16.17164516001256
20.22945118404741
18.59308036583928
21.17237356703082
20.6619916370161
17.99282455940418
16.29181143938144
48.42555748140192
16.55670902900155
54.7860072935073
77.44511074648942
92.41618329515559
105.3893068740053
96.75088216255979
83.06759492366022
60.1102594292447
76.26962845410866
65.1036399872074
90.30890585462863
3.860793776029148
21.81777515943234
16.58019948648906
20.25822970629333
18.80185379364866
21.52883877503504
20.89649952512253
22.15177833959007
18.95883495071683
17.02155495408599
53.99814820806566
17.60298033100718
54.94258460322384
78.40874920564741
95.33730935728651
109.6375660570071
121.3236858606382
110.4329162520091
94.75018165972655
70.53959341643402
72.20931183886808
68.91228232406037
97.00166519565795
3.61732095859352
21.8214430777567
16.84942372344216
20.11042725503226
19.03312795244201
21.67939869800839
21.30215709290983
22.87579042860434
22.94045990048507
20.09328150503515
17.85203625013711
57.63648401568562
18.00629387293917
56.87231192297141
79.18056842334529
96.75842673082394
112.6122301616622
126.1261478835916
137.7349009068961
125.4315584678569
107.5101048635695
82.38963031720536
71.72694351908562
73.5274284502545
93.92437968889141
3.796139016262626
18.97033304772944
17.06683737681918
20.30413517813006
19.2975285077178
21.91339203479768
21.58794375518795
23.30270153798219
23.38744629895672
24.24199950916781
21.33226789397095
18.82760494052827
59.04957403361336
17.46412773399791
58.12017194309336
81.24617894987023
97.98994913294102
114.5199715618924
129.5143794225662
143.2915906216247
154.3727689619461
141.1811314108258
121.2764513884095
95.55330057572068
76.25774725072384
77.87805195234017
85.82190175211787
4.079630870917498
16.4786847090017
16.61961780602062
20.33387137533879
19.72221063477829
22.23064432754971
22.06521712640085
23.72069165343626
23.8236083382145
24.99420024443115
25.28413735534915
22.65736514509011
19.93470220855765
59.62356450423138
18.61594423613995
58.48470951596588
82.27342842469569
100.2015309643848
116.2342185804997
131.8831885339401
146.9963246931546
160.7380587840602
171.5867858603333
157.1655053118826
135.912821235198
110.1651114582512
85.19465695317759
84.0422579345319
79.51111520997591
4.501725362260321
17.60222102743553
16.79681840749802
20.40657382769318
20.07640432322825
22.72981717299021
22.47288174190161
24.25984145923566
24.32533362136627
25.45382761760264
25.77800699573611
26.6594968855533
23.935644380345
21.15217630384789
60.12366997512366
19.05257506347198
61.06061502312366
82.55768489654955
101.3424436648118
118.4083323986134
133.9041074401613
149.6334781978704
164.6243823078691
178.742103873202
189.281248714583
173.7234645426929
151.5786033419024
126.6833620506794
98.37375884498474
93.99248835282934
77.86659687609706
5.583181220802442
15.28765484533147
19.15273022969187
20.0090494367772
20.64153777578367
23.18665784244271
23.0924357306867
24.82602376070619
24.92833747018458
26.01322062093771
26.30550343208625
27.27217987915706
27.80663584349726
25.36121550465793
22.48917702458935
60.7868734674765
19.68915077181212
63.36574758274894
84.78978291753027
101.920281241251
119.6945752032199
136.1123743545128
151.7631995571737
167.4626409949563
182.8496946809804
197.115515002898
207.379681034577
190.8560204697964
167.7995655622388
144.5315834871726
116.7339781639345
107.7990840321935
80.59117497984198
5.539712401454524
18.36985329522428
20.4099818261557
22.74611514132077
21.88647965320334
23.91460785272899
23.76732519351275
25.48343936424749
25.5652277126039
26.70849478949825
26.90270707853121
27.83218409768845
28.28352309439155
29.19192560934586
26.75192593778195
23.91883065867365
61.7586346757939
20.91791274073526
65.61923772943548
87.42323750279367
104.3587924243112
120.4245449533137
137.6802668537978
153.9499703474382
169.7480921112143
185.8389021501758
201.5567715225042
216.231378835029
225.806643881328
208.6118585747781
184.4163800462031
163.3162097146475
139.8672714279307
125.9292113174542
87.02225896311496
5.720475212728011
20.310619415578
23.1686296074128
25.16190453600767
25.26664435855696
25.92680924600808
24.94045625607787
26.31582071140209
26.33289147621831
27.44540882396148
27.63687252078526
28.47352828416852
28.8831560607768
29.72556815906492
30.35049732464633
28.21110730988985
25.41077397226613
62.7757104322602
20.2804181448486
68.23024443209687
89.70593634985333
106.8817252062812
122.9387082689606
138.5439183327539
155.5687187707265
172.0856959660624
188.2515820554928
204.8714061660869
220.7992204077955
235.7498289461248
244.9013095774811
227.1512790698502
201.2208131325878
182.69089292906
167.6608543398169
148.2760026449801
94.66675662097182
5.852186344589156
21.12255165713047
24.22332828761088
28.29717491874773
29.1064397969744
28.83241737797055
27.61477541847761
27.74427637994481
27.30869745440287
28.33587286784042
28.44163124299965
29.26076347084927
29.55065848129561
30.33624879426947
30.79267586282879
31.62537134285114
29.56688657449613
26.9241338063785
63.70964364785721
21.22170070047367
68.89539982463758
91.50303776134542
109.8950144007635
125.5868618694097
141.1999603522551
156.7541373084191
173.7217050952481
190.57530339836
207.2978444673163
224.3289693300753
240.5136146282832
255.4790003989805
264.2395628064102
245.8455848329275
217.9812240040189
202.3528315980303
200.9100551963877
174.5333511169055
100.7170020420456
6.155009856739118
21.07512857671109
24.9636314515343
29.57124202757537
32.22614193964691
33.32517265859223
31.58394145979254
30.72738405293194
28.94695559095463
29.44216973702996
29.38519096588417
30.14153436803311
30.34460152160563
31.04333975293543
31.42104550376874
32.07895501282329
32.65729325239315
30.86275872747322
28.43122347578039
64.21817376160688
23.23221067984989
70.72210184151682
92.93996487634519
112.0163329555012
128.3478050603892
144.0744340405548
159.4571507431392
175.1741954554259
192.1092174718126
209.6609696625378
226.6943623412814
244.24541492845
260.3147427777031
275.5174930084916
283.4473129541244
264.3068681872737
234.7266768574071
221.3337078134918
241.0044116158768
201.8453651328454
105.8040512892132
7.420421369936837
20.60069304218364
25.39564011611396
30.48838561935111
33.32635872006556
36.99891993566892
36.92903554791906
35.42767351864198
32.51253258198462
31.34132454237983
30.57720336976328
31.17173405506594
31.24073083105105
31.87150359744945
32.13114203907913
32.67000616830615
33.038141722738
33.69789977243968
32.06501535983191
29.88991833996066
64.50085598737256
25.74383811715051
75.61610847151083
99.00042415929582
114.0441098610239
130.316900034693
146.7953833205399
162.0011638538738
177.9340140346607
193.6737839168599
211.1820140119027
229.0061928203514
246.8088621884353
264.1327838842532
280.6235403592497
295.0897377976592
301.9901497985741
282.1488709443807
250.8236710789824
238.3315358834162
285.4385956652563
232.7492403400887
109.9853120637721
6.160066642115374
21.27930904029267
25.77976024642622
30.83907333164495
34.16160217207867
38.83396474749245
40.61338151989931
41.18903511518142
38.01164234133075
35.37111027727221
32.61806247846769
32.45226395941192
32.29048424836814
32.81265879533272
32.95504826819968
33.40951833172994
33.66119700497227
34.07038085408795
34.59767918142045
33.15541405838688
31.28562084735107
64.64201602370572
28.14345038938954
83.78790657742495
106.5733497991131
122.0401719915645
133.0633585011277
148.7555943844482
164.639265556422
180.3173623549112
196.3602968724267
212.8502413211105
230.5609899464328
249.0485206412899
266.7496111232353
284.655804160989
300.3863273345981
314.4020675773973
319.132734711413
298.3503408391171
265.4867657130252
253.4247732892219
330.6890842938405
264.4600999685395
113.4568920592681
7.676252345659032
21.54655811568793
26.47953655249004
31.19247470264696
34.72487668765127
39.36911821808086
42.16367169802695
45.23752383282042
44.28525969762725
41.35529473614584
37.02290905431995
34.64658153565071
33.61335690789013
33.91536186806692
33.88354880098857
34.2293852676564
34.36813585712516
34.67629191451512
34.9291137182714
35.42964244425641
34.11960393480613
32.59462268281555
65.42855299116627
29.71920616603692
94.15496051188703
117.1769204687578
131.2183463896741
143.680108816153
152.5616997069857
166.586298775244
183.1465001277357
198.566007584181
215.4052156388366
232.2085234810647
250.5346274293728
268.9853805149353
287.2688217995673
304.5596290864876
320.0575468356552
332.1541792273689
334.0896315691368
311.9670128571723
277.5381943036375
265.4620363487097
373.7356168387975
293.0039561652314
115.9986258594423
6.01268813125223
22.29752617140592
26.60930124658654
31.7657113365126
35.3908350544812
39.87852225003903
42.82535412608263
46.90283846601348
48.23620121506262
48.03904332914208
43.41672439402775
39.32968714025755
35.85252452294871
35.28741078858177
34.97872548427661
35.1634656955535
35.1678427017081
35.36778664491624
35.52844945536275
35.75030323705535
36.09461116635133
34.88457888646139
33.80373372368908
65.34315102682999
31.91158349025507
99.34236895292281
128.2997538346698
144.5147063417614
154.7762125688033
165.3052322118102
171.4255225943586
185.2724558269546
201.1499070514084
217.3834290802662
234.4825959690978
252.1157566880277
270.3081849071411
289.3784836718577
307.1728157742948
324.4423216528024
338.1137338546525
347.9807392597947
344.5288184930902
320.8163932581437
283.4530259998009
277.1718403946821
413.1230084999593
317.1177415905094
117.4812887802365
6.161495157774555
21.36223452054161
27.38741489729831
32.05093271856627
36.0835206146822
40.20788746325363
43.59314807986144
47.79962395166766
49.70013693998614
52.28059661040913
50.37883461844461
46.08543908124012
40.70409001798474
37.60934823066975
36.33897811431189
36.26728777618702
36.0671158463313
36.14627643035651
36.17936943066658
36.33061915315353
36.45348075183589
36.59078738447435
35.41009261556797
34.87073037013852
63.61526786327467
37.27095677788476
105.6947573353812
134.0958559381772
157.0491468678788
170.4858438944383
177.8508635611974
186.7889353101467
191.2939930623041
203.4674970789002
220.0143826325538
236.0631965541875
254.1568814014958
271.7458731463137
290.7117517455924
309.1885657442774
327.0951341694956
342.6638948792526
354.3362473596746
358.9253803004122
349.3972441674393
318.2891718211137
280.0339816600921
280.0909922537789
450.2488541211648
340.2799466357883
117.4274604938803
6.194323536444154
22.43641666881991
26.12667101760675
32.77559022690782
36.31189293736126
41.03825378327399
44.20129824608581
48.45939493683434
50.74902730093797
53.94797292213195
54.50601697545651
53.39368500270282
47.60243719560828
42.57844047323492
38.64877914349228
37.6416555862329
37.12601994385714
37.0229191917641
36.91633792447926
36.9526935048195
37.0033497926119
36.98093183289422
36.9278616959522
35.66409565462934
35.72140728993976
60.68623685391532
44.80514814352984
123.7715213047862
145.3648948849882
163.8791988340103
183.8675091973192
195.8799483524191
201.1513702098727
208.9569384581357
210.7536037575221
222.7630534124471
238.3251646971124
255.3635298096445
273.4763704237124
292.0668517125524
310.4203428293456
328.9073506784538
345.3282616830263
359.2499687928948
365.1079134418205
365.0428362461051
339.4364914703435
303.5193373439235
261.5806493859319
268.5001946862925
476.9912470821127
353.0645820990334
116.1740644177804
6.275684346485116
22.40901866960435
26.7803004954385
31.89264227053109
37.08235880612045
41.52056730318228
45.11633746717497
49.02757683769668
51.75691228603617
55.01560208951175
56.14314185616471
57.7754672031409
54.9209036913397
49.6657527471532
43.6103863797286
39.94723716540455
38.47312486379592
38.05538338396823
37.7406871462341
37.64696525187384
37.58751600288507
37.49021528906049
37.27972695109407
36.98607577554914
35.59079392648812
36.17111937903124
57.37559138055852
52.73096000882062
154.2659732799017
175.844183262255
177.6406146745485
191.031649478114
210.6396364900966
221.1454867655623
224.7412183137774
231.0612785609223
231.7481716406548
241.7281739262589
257.8338054028609
274.4146393191015
293.3662750728321
311.6495944389172
330.111360997749
347.1398341893133
362.1289878346846
369.9455173947925
371.4159727674977
354.0172284212966
318.0262776829451
265.346292048457
224.2096719625629
238.3880705367359
503.0455101705195
359.0607494036312
112.9113933226484
6.255281916093527
22.30061394886163
26.88701096587654
32.64165275195142
36.17555090112638
42.25576273446796
45.57252175167601
50.08408308645016
52.6550033007102
56.03381270972843
57.39183212805584
59.71276918442268
59.23700729416473
57.19006242361121
50.5498338013193
44.91471202368392
40.72929162760075
39.37287553896718
38.71995633256993
38.42296401633657
38.23069158771974
38.03124702805601
37.75242712171984
37.28471847928438
36.73793137858846
35.24159335760508
36.09991531992184
54.01913194368919
24.32224311379766
192.377445429281
213.7974744261543
214.9044883830527
209.0443245422528
218.729710178008
236.4910737086012
246.7282634200972
249.2889768949541
254.5445129274898
252.5404142171765
262.1206758732514
276.5142486708305
294.0472931699287
312.5939733309082
331.1611631675346
348.254730445925
364.1886115283181
372.7999328751072
376.4748886156008
360.2092162635598
330.4712613296135
266.5803507098222
206.2516355265016
172.4365849249972
191.1625272717532
490.2030754841011
354.7756017416452
111.1679285490084
6.265834404605888
22.2092839571248
26.98568646122196
32.77046876107463
36.7780469806343
41.82607342699136
46.24579737965256
50.69131371054846
53.64180973286042
57.02938218540214
58.70891931549861
60.98462342782557
61.17952310993428
61.74806974401333
57.88543999155292
51.876752526552
45.49589659081504
41.58000522550173
39.98676027418409
39.34522900784224
38.94992986936934
38.61386129745642
38.23875067266251
37.71133134104627
36.98208806548833
36.29497887039186
34.67481370818348
35.77784393715392
51.94502288288616
9.045606733430002
113.5649510908325
247.8992467828272
260.3444543835134
254.3328927612567
240.0894824504661
245.2492102889329
262.8300964076449
272.669660924974
274.4920436503576
278.2583415582733
275.1821977869694
281.7798695168187
296.6337299445364
312.9956746449114
331.8656195225722
349.2219676598023
365.4371153972801
374.6395731260738
379.2850502448058
365.0750884447644
335.684592473742
273.588806520477
196.4625051712322
141.7109093060433
118.6056865946798
139.0391484560899
458.3742372573017
348.7757771409766
95.91817214443665
6.272751312921753
22.25217743573538
26.95107138330925
32.71301064002156
36.94907005238321
42.43498970190677
45.80531127602114
51.10988591414956
54.13283812616799
57.87792926625193
59.85541550692211
62.29032418959711
62.6585197382389
63.8415817112738
62.40756250015863
59.32193086723196
52.15929185716637
46.20238469866874
42.09968959781378
40.54280828538855
39.80540230883426
39.26601375460066
38.75125442387616
38.13567248501008
37.35738587321195
36.4055891603825
35.59049683968708
34.03961739804456
35.27140114605784
45.70789674299347
7.420022533579211
49.64535847601298
102.4286963411444
303.9114900924302
307.0033454056372
291.7605397754943
271.071200811936
272.2293826935554
288.910685978916
298.963333912664
300.7140213762387
303.2290856316041
296.989438950676
302.9443259116665
315.1804599569292
332.51610332977
349.8815320294694
366.4007883092883
375.5493235988141
380.8213236259845
367.5795645334486
339.7996048690507
276.8028423082744
198.0580973661094
128.2116241650494
89.04425999824311
75.49927737814183
94.70964032779332
413.4885251118351
293.7142295421269
147.5663967978842
68.86159105575935
6.224986436304203
22.29073060201657
27.03203283461022
32.74668716070328
36.94009549001363
42.34560783247902
46.31900711046004
50.95876015329262
54.48569649488815
58.34787221536008
60.58277452185033
63.28164499215752
64.08098270248627
65.29448686660379
64.54369461715672
63.97697251420125
59.17087489312818
52.70707889100076
46.39798565482719
42.53420465983664
40.92911564370687
40.04194817084655
39.32536928514486
38.57329381637223
37.71965242914843
36.74820414126938
35.66211588196077
34.91168100360266
33.51674792280377
34.0304464703959
38.8915441901906
7.735166865460259
33.95658005107701
37.94797832689706
121.8311539304609
356.0425278494683
350.273864089525
330.9219453741925
302.0817863305145
299.1403100630865
315.2544046933166
325.4734061670781
327.5585665904397
327.7063018705119
320.7465311149394
322.4702307792442
335.7582753133129
349.6102043464131
367.2762875703393
376.1203349304283
381.4966993164856
368.7581026449316
341.589592423857
279.3461819498159
199.0502831821306
126.7402621954974
78.69182880537069
56.95149379318666
48.47319669104772
63.25507439900404
327.6941437844335
500.0711023223139
118.0603748191667
65.5832464048583
6.202619525726976
22.11321079411763
27.05109165934065
32.90911696916003
37.00152879490916
42.33970504570784
46.28544042546408
51.46097703359542
54.28554965442984
58.58917225350024
61.0030542846723
63.95696218592976
65.10342456058535
66.54211963770348
66.06170930819016
66.1358441992684
63.77127326633817
59.60237422408278
52.45542744393452
46.54780243018356
42.77969233610102
41.05856086663742
40.01033851099387
39.06368649122879
38.08708918273457
37.04787459814717
35.97045517881116
34.99411964091063
34.38136706985441
33.49695988767442
32.6465927175587
36.93383207590177
7.943399358533406
30.64089443503859
33.66435359653654
47.27468655552939
124.8612065377194
412.6485046268555
394.9769095517687
366.8478048360631
333.6714322464738
326.7950635093764
340.8960991507066
352.1515146759411
354.7733410203412
353.3827431199388
342.5251216394864
343.1833076906539
352.1630731183832
367.9582611499509
376.3846442668945
381.8030731364008
368.8727407879709
341.8888626173788
279.8416390209726
199.8289495973112
126.5620407114949
76.84015699049809
52.15038632390012
42.12161306032222
36.86884749176208
49.36090441754594
408.6543026963877
99.69500515829706
464.2805063803814
225.6744207618253
97.00825546112351
47.15737928002325
72.57054205673505
6.118687746717317
22.39683865050986
26.8821814965051
32.85848957212132
37.13272930501242
42.55298181962208
46.3328174347061
51.38982079070129
54.73938751221615
58.6094260702404
61.23632854080849
64.36700415436363
65.71920704586513
67.44582485142028
67.33448601502123
67.48543503954758
65.90588801353047
64.14643646995593
58.70870718026579
52.21663906562715
46.4107435506443
42.72376687437728
40.91456812409004
39.65180434509364
38.49887680470432
37.35907674777662
36.22941134139263
35.2884653890639
34.46089209150107
34.025261714073
33.67561581793441
32.90520585823965
33.62971713557977
8.311615325816859
29.26089525834849
34.73609048055439
41.41589112958116
46.98776800638463
138.1726639353062
470.5431931343517
435.5169406542171
406.1038930476908
366.0521839229104
353.2489975890536
366.7111399432234
378.4288356338414
381.5142656291997
377.2816134714112
365.4252316247386
360.0391640878526
368.6701609628815
375.9497194121025
381.6011816387243
368.3377685690209
340.8237068529622
278.8843251809005
199.3033343694431
126.5737907243567
76.42356191889544
51.24462446545262
41.01362274535177
37.40703006192775
36.66722921262379
41.74271352855734
35.48471665103239
292.16391564085
53.8550521757919
502.2503008338328
166.6831764912437
91.06789810621937
45.65268017624271
60.25785587210382
6.453375644450586
22.26248152849989
26.84398383905877
32.58601993594835
37.09550929890119
42.48313081183604
46.49801896688338
51.42231719803932
54.79324891087716
59.02792999619922
61.19893212510944
64.62940065209995
66.13023023902628
68.05361220657477
68.21072553593399
68.59350544842394
67.2372820649303
66.15714944622837
63.08846190173342
58.07348009402727
51.48013858011288
45.95374851629473
42.38295793524735
40.43520089394362
38.99650710360754
37.70545113049066
36.50733401402098
35.53490099248859
34.74062397630364
34.24241341958294
33.77891210890444
33.99078013558186
33.35272928804878
32.74986781444716
33.52165222974667
8.369181807749996
29.89407936007264
34.80614110589681
42.70133805760119
44.99128532527121
52.87752414619921
139.2190264491676
525.7679132146843
476.2745771363811
441.0319916580228
397.704441462352
379.9175365083941
390.8345296251621
403.423595817762
407.038465710799
400.5974116880219
383.3391560375371
376.1286328857835
376.4699169316251
380.9787602046565
366.9700802237356
338.8084134944248
276.5138087739044
197.6635553380926
125.8959559819349
76.38832578496643
51.005383570978
41.01764657696536
38.26871358280188
37.57027446860751
36.29542373360007
34.34210380207988
35.032721036649
368.6652253744622
85.97345637505308
41.2534310302125
455.6393622814468
117.1965605458919
252.7826877554554
69.96605192873531
38.80531895544891
50.68708763122722
7.864606066774085
21.49634660022727
26.74873475837112
32.44807994924733
36.84687821392298
42.52670284290279
46.44626037229554
51.53121078501657
54.86599693942802
59.0829701887723
61.63519941667398
64.70420528699009
66.37747934306245
68.48853760915489
68.79228073413184
69.39028570781748
68.31574400071149
67.31059789825032
65.03633269117194
62.19806857785075
56.55967169747012
50.43340923611092
45.17735697897525
41.69712256693602
39.66530769605956
38.12885034415129
36.81722954480571
35.80513999599623
34.96921803706284
34.4567589463964
34.24924875835424
33.52142003830768
33.86297597918212
33.23009552334191
32.53382858929476
32.32964997786578
8.748266738878613
30.23016039505661
35.7749899280188
42.80972214636893
47.46319385938964
53.00150203392948
55.26115163502974
136.0327263830994
584.3623772276264
505.3204385665043
478.1521796937682
427.1832209934134
403.8632688052134
413.8564062782208
426.5865285050729
429.4130001059128
419.1786832277468
398.7884682922185
382.4758244429249
379.9023322369318
364.3411305737259
335.4303949307222
272.9827638068466
194.9667207393005
124.6613052724965
76.04772638694668
51.02465854584932
41.04599589008693
38.54634090431811
38.80336351851419
37.56482899032994
38.55407797004305
35.78578174776993
35.41980341370785
35.40224555866584
176.9361262349055
47.98090365675571
40.78818184685658
513.0169175167155
102.5839239587417
197.0963043203801
59.04839781440943
40.10610949689711
46.84753904462705
5.961517549970258
22.18966857832686
26.83496069290754
32.33040544178136
36.58362902057387
42.2940982596614
46.4807170777695
51.49767192406068
54.92580500471836
59.15404410526131
61.77032346392389
65.15076562103135
66.47297318149711
68.76956991986479
69.24650178842042
69.95702497164613
69.08798662885795
68.27008836060624
66.14285201048897
63.99626608926906
60.35430413097721
54.92257365949733
48.99207976674792
44.04576723913063
40.73430488778065
38.70467536426461
37.20154513312805
36.10414995324638
35.21867632300916
34.74534558277433
34.45867539904248
34.12174763412145
33.37000275134009
33.67668190295478
33.95186616809167
33.14517012130811
32.31773401432032
32.95456329804426
33.05541138338819
9.328310650994682
30.67971491239609
36.56229276581061
43.74959721995857
48.32408363718049
55.54360045532174
56.81103139490097
60.23195313795319
131.3053512228933
612.2102647237601
532.5279050540898
503.0731321884113
452.5416981791366
425.9096467765111
431.9545844574157
446.609388693601
445.8396499600573
432.0917595240849
402.0289351850488
381.2908588927672
359.2116924193147
329.3740451056827
267.7061959872171
191.2961609650436
122.8300347773189
75.44965504671089
50.94400013081776
41.10869873120503
38.7468744164314
39.44347169477715
39.62975708269408
38.98040351866415
39.24259620041845
37.18449140808112
36.75138240568386
36.17994206714468
132.7214814867343
45.0520955619587
38.25291711834768
290.3001997839555
377.6801835085587
132.7422712313281
72.94832755463055
48.96092500829477
37.1049726252383
6.079611568573925
21.17268478168218
27.32314832910716
32.40439265133991
36.4570895701159
42.018296332961
46.25002586003956
51.41886156160105
54.91007418501443
59.21266720168608
61.86004527329299
65.17140017700271
66.93106427958489
68.98130626554413
69.56456078906767
70.43332743394612
69.66215786530135
68.99633464173165
67.06123803984629
64.98948874662095
62.07913354041845
58.34564528254395
52.77973961641114
47.24367568623749
42.69875018117281
39.62870893636915
37.72366080591964
36.47097193790824
35.50074482041426
34.96835620177742
34.5969576633093
34.75613058620821
34.28005540648632
34.14812043977379
33.36405675224775
33.67703743666127
33.93254808285956
33.25297434568328
32.55605831803302
33.18326353226534
32.5004285349422
9.735602142735663
30.97991624264047
37.84472705118638
44.5636722297283
49.37675953351758
56.9466163780836
59.84392355862997
63.55428617594954
63.7722170214989
119.730926247336
618.707404781823
538.1876954027392
522.2993906229193
469.0667663916742
439.1614559438511
446.3022587109971
456.6497034384461
452.9952677012789
427.8815220317611
392.7615816677572
352.5868164435028
316.5688815476244
259.1650408993102
186.1818771079239
120.4497177344927
74.59771909826982
50.74116300098865
41.09881455544126
38.82024770350436
39.8132956664071
39.73141640648561
39.99782388121996
40.02325981367867
39.37665006348293
39.90792701989553
38.81322011230812
37.55401397526661
37.33934875838837
64.33867815600938
45.80245295260733
37.7948937377512
210.8945413311216
372.9056852331693
103.4761078809672
63.21895296321626
46.88880291430593
37.00592371114932
6.019116838569755
21.04363339582647
25.86087449785503
32.54104234760359
36.76044623149857
41.79356971893485
45.91942688178831
51.19807905793598
54.80650049575217
59.19049232422903
61.87186113579603
65.30799438806119
67.03538209395511
69.36420023731979
69.83906955615623
70.82179059764485
70.15535283295952
69.57228590837001
67.76926533029872
65.84442517713653
63.02751966291172
59.88742798848976
55.78769712551927
50.42121803222486
45.38014009655267
41.32218977949029
38.56475621594865
36.96484898940479
35.85701344265963
35.27155765778303
35.02408231376548
34.44053007018711
34.57436510839606
34.25972135904387
34.079761464226
33.56874355963137
33.84103191432833
33.94450918909501
33.41196549496367
33.01608959054924
32.28757746392512
33.38700067196523
33.57711485609563
10.02718235895419
31.88306571478843
39.15425213965845
45.93437896411113
50.40496209784214
57.98599779324537
61.82521613612203
67.09418813136791
67.35337723364752
68.33792985304662
108.7997253029575
576.5607776142218
534.9005423606321
519.3520421625798
475.3578421686072
443.508303038518
442.9762902336178
455.8312084419081
438.827390084285
404.0517147885861
351.7093339474599
297.2606487728728
242.0955774319374
178.6289403097204
117.1676952979089
73.51306304657784
50.41442941743646
41.02428649135972
38.80485638663458
39.91884858882398
40.16543826227687
40.29841875104197
40.35111050945273
40.57266722098081
40.22661674035906
40.36913358173494
39.47785436317027
38.92391134668119
38.73362899805299
67.39331056942298
46.14132661249874
38.50415523604744
38.66227728499488
244.1435710323203
331.0081439445717
213.5497468002394
78.44113866708376
51.26609958709781
46.83698205548938
41.72779549022015
5.919944025242358
21.05790339128031
25.88092242934392
31.27349368613732
36.8093747691069
41.64199391904946
45.75958745815323
50.85250147812658
54.57237483275572
59.06143701814516
61.83708300414268
65.31455183016892
67.13209096746716
69.44183872402151
70.22625015699685
71.16718546147123
70.5560371211747
70.07994658417424
68.3494651153989
66.53394837636363
63.85127713136606
60.72969069136713
57.15109222703985
52.9939774599418
48.0393579220125
43.60224806768758
40.08843785253658
37.74356510911157
36.34261289701258
35.53240457568183
35.27291314755588
34.95881021642367
34.66503036021513
34.40606473818683
34.14642901095117
33.69111612242932
33.92445213981615
34.06596167988125
33.61094436810112