/*--------------------------------*- C++ -*----------------------------------*\
| =========                 |                                                 |
| \\      /  F ield         | OpenFOAM: The Open Source CFD Toolbox           |
|  \\    /   O peration     | Version:  v1912                                 |
|   \\  /    A nd           | Website:  www.openfoam.com                      |
|    \\/     M anipulation  |                                                 |
\*---------------------------------------------------------------------------*/
FoamFile
{
    version     2.0;
    format      ascii;
    class       volScalarField;
    location    "3000";
    object      Ma;
}
// * * * * * * * * * * * * * * * * * * * * * * * * * * * * * * * * * * * * * //

dimensions      [0 0 0 0 0 0 0];


internalField   nonuniform List<scalar> 
18230
(
0.2183802823102223
0.09627356461474089
0.009896536693017115
0.2097572765606943
1.354254671771608
0.05535657024071308
0.2170834148532152
0.006971669368622174
0.2084948649647686
1.753163377876415
1.457410559048667
0.03661777594285916
0.7313591978867138
0.1515645416075797
0.01585389757751986
0.2047095956833574
1.442588941877202
1.817909115366973
1.531257558541259
0.02423151465385215
1.681475413007513
0.7968997333036679
0.1196553717438762
0.0246769027623174
0.2037244873208064
1.449561464191283
1.513128595615555
1.770717001346213
1.595113238255164
0.03778314419290092
1.160391874914524
1.691085028267358
0.8133981529270301
0.09495802967559869
0.04209358453474733
0.200773911849302
1.43581647397478
1.528856660075294
1.501124993514967
1.780455026240197
1.660849584295526
0.06515318872503564
0.8463959197958923
1.136718918189776
1.687699474804397
0.8214192283589959
0.06070822610868343
0.05296573185318472
0.1964984276043966
1.416004096857761
1.510951391726579
1.480815300147993
1.540061252531326
1.753436750687725
1.734612353996899
0.09868496588971715
0.8115642488568623
0.8625857574106244
1.131871079686633
1.684694933981926
0.8369295054614454
0.03053037699512216
0.06455873631472953
0.1887441423980467
1.393370852664157
1.491597174954072
1.466381496592812
1.527031092465664
1.523597310797432
1.761838988877454
1.802693078922146
0.1433165901447826
0.7697299276540298
0.8042184524649126
0.8678085082346791
1.129992668164342
1.677894792955698
0.8493123209460338
0.0219005303184508
0.07118035659560874
0.1755964891629616
1.371411210870698
1.469617617325401
1.447757351044199
1.514117178393686
1.503168248665846
1.549660122426872
1.741249735488864
1.879757181060375
0.2076681819144742
0.7426380605584422
0.7656982148418557
0.8125443899089516
0.8700002768229811
1.130284472560277
1.670160357277694
0.8592202445853029
0.04949208169288217
0.07583492716928725
0.1580774520938802
1.34496116818527
1.447783023235915
1.426188262078129
1.492649486564508
1.487806090578558
1.533014699282462
1.539336244458984
1.730700311041398
1.941627269943497
0.2865674754849306
0.7246746361973343
0.7425707724058868
0.773227954759386
0.8127593277314588
0.8743867510497124
1.128217118494335
1.661834200400272
0.8699808103922354
0.08181765458797814
0.07808438235671483
0.1339555490995485
1.317824429227909
1.420263403321191
1.407139131766131
1.471115814785021
1.469371986762764
1.51903041640697
1.518415952003129
1.554169473132855
1.707045727328417
1.97923418812333
0.3659490772950399
0.7125759605846789
0.7264529276482244
0.7491993817832822
0.7752383249638108
0.8177446162659643
0.8771313919462415
1.128384874249791
1.651572972449215
0.8923747330876302
0.1099231552472103
0.0791681321795356
0.1047382424073319
1.282743614844871
1.392377069001262
1.38145230920568
1.449802571759105
1.449209987292737
1.49946184350414
1.504344390551896
1.537129727308342
1.548717901322437
1.696038335616848
1.997464982940422
0.4539457383249412
0.7064758543627814
0.7162445351072626
0.7327539695200438
0.752489852761395
0.7796201133210375
0.8204478328032961
0.8803726683140184
1.127473160123948
1.640148591239607
0.9154018612662712
0.135265817362437
0.07551153556313159
0.07039034131689323
1.198570393432039
1.349929740949497
1.356437035072643
1.422786180082827
1.426368930280774
1.478233941276664
1.484553991221097
1.523479371327951
1.528978048923937
1.557864404986443
1.678702001547356
2.003776362274519
0.5391371273363389
0.7026451365867589
0.7132009928427234
0.722206518444042
0.7369485028052466
0.7564352877491219
0.7837805574565636
0.8245666929980598
0.8844736084107834
1.124711776424756
1.628934880181726
0.9477220160800804
0.1603171180160864
0.06978452803022903
0.04499096881911233
1.072831853773587
1.240390181482456
1.314071569986494
1.395116708668733
1.400090190462207
1.455228194654741
1.464124107495932
1.503987281545605
1.515260019458839
1.541829845042589
1.554851372678397
1.667173370588445
2.000247713998895
0.6156247349440119
0.7018935029819517
0.7115933034955635
0.7184740329005727
0.7272829662505664
0.7407011544877368
0.7616116334166554
0.7873547989550554
0.8295053833944395
0.8880314225570118
1.123245632658802
1.614158474772843
0.9852293491987267
0.1807865123232183
0.06610714602893708
0.0377239895065603
0.8987295641253109
1.105256370872519
1.217447600342599
1.35311814650161
1.372831290535174
1.428634149191429
1.439955171678976
1.483129470606526
1.495339054352547
1.527807500517201
1.53664143676177
1.561393225416956
1.653493055283144
1.989533229062738
0.697605942261594
0.7052492546962085
0.7121153414002841
0.7162020294470712
0.7245549552829939
0.7308147060863165
0.7467181943164869
0.7649437431395198
0.7936678226211964
0.8332921408457589
0.8937130276524134
1.120920047794937
1.594940796556842
1.031741912616591
0.202054529178042
0.06567648197489678
0.05282220688153073
0.8015379782567036
0.9138026798635015
1.091932817702558
1.244372687992104
1.331131549889491
1.400872166683912
1.413782390384301
1.459731508114208
1.474485783560296
1.508231959998667
1.523203153939515
1.546462238019392
1.560329857453992
1.643855153400464
1.971497035781708
0.7810870332716108
0.7170264101362652
0.7177953282437862
0.7161046406103621
0.72311895954005
0.7278728254268105
0.7375220903716561
0.7497222135548427
0.7720372302410452
0.7969898285620499
0.8405015201702928
0.8970045100080272
1.119761029943652
1.570182129600896
1.079933686313923
0.2309613745868843
0.06800083713317005
0.08206841209776138
0.7519127156576689
0.8220114383721637
0.9086586098176314
1.110350407714476
1.224894997394418
1.358746648777298
1.386278159665463
1.433312296549965
1.451000600396892
1.487572499164304
1.503072763972514
1.532323561182968
1.543236932759601
1.565120161554003
1.634062281208892
1.950055776504561
0.8649163594950173
0.7459190382221522
0.7349061949149354
0.7212599938942391
0.7236644168337942
0.7261133520081468
0.735212800344294
0.7404974410524821
0.7576886769109011
0.7751364343672784
0.8055020039979777
0.8443314084252297
0.9052244944616722
1.1174328840482
1.543864244959685
1.127650030622655
0.2666315754625221
0.07756153420363641
0.1236741532761586
0.7231363314502297
0.7807112320759864
0.8137084064815142
0.9207068811003124
1.099476990191958
1.249579871095441
1.342381370919407
1.40549761919457
1.424317045467625
1.464251437214244
1.482386364079873
1.512577551477628
1.530028694513698
1.5513555629018
1.565418438309489
1.62737145859044
1.925234430662323
0.9486700167351203
0.7309730499258397
0.7662621978264846
0.7367419129257298
0.7296674408463979
0.7264690673967708
0.7339429603014095
0.7381159578726855
0.7488777007783295
0.7605186710165643
0.7845551367175485
0.8090354046943565
0.8540176898372874
0.9086078255024814
1.117777119910371
1.516040885541504
1.180420662643341
0.3174850197842637
0.08657700882609086
0.1767560352721715
0.6988477874308859
0.7521975132761406
0.7673767431070454
0.8297302936662169
0.9154191968127253
1.116234299274025
1.236381961693571
1.363179980892666
1.396480797735304
1.437968036386245
1.459096663363854
1.492015429445227
1.509748891963595
1.536877995137574
1.549332277985921
1.569092299139346
1.619664323855032
1.899214164433389
1.030060562094762
0.6846426636028742
0.7525988956624168
0.766890532325433
0.7482987056612617
0.7322551057357386
0.7347628163754977
0.7367587881483966
0.7469425108591869
0.7520548418688208
0.7706515337127109
0.7878881008218225
0.8200369048636046
0.8584081557884712
0.9196463412008662
1.115471760775261
1.490529845191581
1.230078461367091
0.377613794316319
0.08911768585010463
0.2375185104522575
0.679196785226321
0.72470346966059
0.7393803658335778
0.788414501429722
0.82158880406572
0.9284105080354013
1.1060795968744
1.254401253708004
1.352471360507218
1.410162909635991
1.432704949621245
1.468874968923959
1.489071630124118
1.517164059731827
1.53610258415604
1.555944610800607
1.569728466886087
1.614271924959239
1.872214554269263
1.106567940764046
0.6358991415134552
0.6963308176906197
0.7513309756564321
0.7792161124652145
0.7489961451215003
0.7415482702145103
0.7376237453759297
0.746006535410715
0.7499291954714646
0.7622767020802467
0.77399914741964
0.799781314972261
0.8242341274774208
0.8709433762795441
0.9239171364387846
1.117624441461721
1.464912978493486
1.276585656784617
0.4423238904418832
0.09151879095971752
0.3012196903673504
0.6597117148628351
0.6994526076359902
0.7151341501789986
0.7600621033535147
0.7759750249565613
0.8385960335832585
0.922375583521978
1.122408142913003
1.245158702691897
1.367746859919793
1.404716477249792
1.442813839233038
1.466004502207857
1.496606041531024
1.515807616672818
1.540916653575263
1.556128448438727
1.572638711053584
1.608301639840073
1.84551587025179
1.175591597738634
0.627452672098585
0.6434911348332413
0.6993914292933953
0.7641913439062349
0.7795422894253566
0.7610122559455009
0.7439162002459737
0.7471892789446386
0.7489896604527942
0.7607058278406488
0.7659791038328395
0.7864358059922754
0.8039160838770322
0.8381476700013892
0.8764539396397696
0.9382059676160494
1.115786862124138
1.443878735216979
1.3108457859573
0.5067821625453619
0.1011814102474207
0.366431200538804
0.6327352209931301
0.6764030318047877
0.6937589744835531
0.7324546613554939
0.7486478286946138
0.7978582529961772
0.8298561088264984
0.9372157430295416
1.114787342539828
1.259667538225635
1.360658771612946
1.415130367386786
1.440128993320145
1.473690015196003
1.495339244425138
1.521367562613539
1.540507845221717
1.559971486419284
1.572660305658081
1.603837032540995
1.819185470468178
1.232400124419814
0.6556570909103256
0.6370890440097247
0.6507285849403053
0.7078439586561505
0.7628934814298329
0.7913318068144063
0.7612898076964623
0.7546484838152417
0.7503667991403032
0.760055122542078
0.764162799469469
0.7785369680603412
0.790708271594014
0.8186683014036897
0.8436655638921731
0.8925661493185867
0.9439095603617771
1.119573358068813
1.438751656721907
1.339795093055899
0.56344326417417
0.1176472885775766
0.4302498861586367
0.6155627574542176
0.6546893519323636
0.6706255582225742
0.7070623319585313
0.7238767814378894
0.7689186712130779
0.7866619297142076
0.8483305009972331
0.9314045478953944
1.129091764345217
1.254077479602556
1.37248924070533
1.412082551235827
1.448135563337909
1.472514801734413
1.500933877341601
1.52100139950441
1.54353513947916
1.56066464261781
1.574194216619853
1.599766089177947
1.79362569983978
1.273940162905983
0.6865700002749636
0.6738290723380249
0.6446744557290131
0.6562306312808929
0.7096724545065352
0.7751885419784845
0.7918969157051119
0.7748623382917035
0.7569411321599165
0.7616595064614663
0.7635207176230104
0.7772848834043776
0.7830457292332543
0.8059826249066514
0.8242497694271067
0.8613353993514624
0.8998103041416783
0.9632135952108144
1.117583337316542
1.446364154548118
1.367922245884574
0.6205981543067263
0.1425988430398043
0.4922310523608644
0.5906715933269211
0.6333418500978336
0.6470497221119343
0.6835434229656782
0.7018810070664466
0.7409803268801964
0.7583614098726729
0.8074885982866895
0.8402743511827716
0.9467727470212904
1.123679767508921
1.265548367211115
1.367888939981422
1.420602673381452
1.447277360086495
1.478366570709833
1.500583376309986
1.524515506692478
1.543210389045055
1.562587473836709
1.574687766802822
1.59671123523676
1.76859828080966
1.304221295240154
0.6477215271870866
0.7076407325733751
0.679891752772424
0.6515549956366022
0.6619019509397395
0.7188584485863362
0.7741114687544706
0.8045734626945232
0.7749144300261637
0.7698205832355117
0.7654482265810097
0.7769188441310577
0.7814970745488495
0.7986366542237399
0.8115366663731244
0.842885166722728
0.8687381124061073
0.9212379263671875
0.9714936589245983
1.122878007149855
1.450099002089772
1.393726977490552
0.677092464234069
0.1787110994220038
0.5508372506729466
0.5713245264575721
0.6148900570779282
0.6269856711356945
0.6617039375569449
0.6781744813238015
0.7152724904395859
0.7330541319400079
0.7782251892508553
0.797709657634792
0.8584520726698454
0.941615684617252
1.136312931434478
1.262004390735593
1.377463050433987
1.419245878240363
1.453592183222544
1.478211146703016
1.504282097358859
1.524315511726822
1.544273053917581
1.562523553955094
1.575242765986303
1.594173938012597
1.745866982468844
1.322598315139933
0.5393896825311328
0.6618930984381214
0.7128524035064319
0.6904541563640485
0.6577697763966689
0.6679951952740653
0.7208979390968703
0.7871687333841333
0.8054805514886688
0.7903762003086606
0.7720965695121969
0.7790080630969827
0.7810506107056573
0.7977126109476109
0.8041769115516338
0.8309250871521606
0.8501862440313771
0.8920168507854445
0.9314936842882956
0.9971977759446038
1.125670509632166
1.448067684275151
1.409824278286
0.732069116764805
0.2257608216226437
0.6058713049780832
0.5561618745384775
0.5977200460653666
0.6061537715433466
0.6410403546047015
0.6549919338261248
0.6920379698933238
0.7098084852965949
0.7498994646054342
0.7696660321424482
0.81729888065321
0.8518318375806003
0.9565951173966795
1.132123881561474
1.271835772539052
1.374773482229213
1.426127493120056
1.453577844493114
1.48227294919741
1.504130487489274
1.525693883902882
1.543409847222051
1.562098873538164
1.574796919229714
1.591814261653833
1.725668685311259
1.329885591596466
0.4282700014307655
0.5371049097443191
0.6711619670546144
0.7244957312647071
0.6955806355251586
0.665384166838213
0.6738360407018383
0.7311753573455281
0.7866680945264727
0.8194764939223702
0.7904755564327148
0.7877323510845488
0.7835625399261619
0.7976013773119369
0.8029396581213349
0.8240756076068528
0.8382391818638394
0.8748139558635206
0.9026119863579998
0.9599194109221595
1.012920600026959
1.137722499273175
1.44599997816071
1.418026707307856
0.7822296111975585
0.2765567565792721
0.6574266090239895
0.5410342523573909
0.5816533066572417
0.587922401609724
0.6228801737675715
0.6351730423732724
0.6701951074472563
0.6863275636704008
0.7243361060441696
0.7436443858442826
0.7876688281886142
0.8098162767045258
0.8686211410105495
0.9525655655295685
1.143468734175358
1.269736100703144
1.381980396396191
1.425918240265641
1.458213879999124
1.482319254149148
1.505765238331926
1.525022959393952
1.542411488156924
1.560143235658167
1.573015385997795
1.589080620575791
1.707885078451247
1.325891594608074
0.4243067336321661
0.4375471672231574
0.5596181204395776
0.6779493266326981
0.7291289776905272
0.706678022821847
0.6719284045199074
0.6810803834666324
0.7339242907918407
0.8008306151283701
0.821002602601353
0.808344900950263
0.7899933056654116
0.8001104632788256
0.8027520383442878
0.8234850120804846
0.8310318519768084
0.8637875471757041
0.8855895615573693
0.9330654559299306
0.9784419745951813
1.042557340583622
1.155679519897686
1.446798711226916
1.419603930337051
0.8242869607286174
0.32991560142174
0.7086043749875921
0.5262011804244059
0.5653608901423702
0.573018863034967
0.6058809350551652
0.6150553223003955
0.6502197529293624
0.6637939723289268
0.7015172001658736
0.7195800164122741
0.7595544993515481
0.7815981667679323
0.8274073799930313
0.8639584629575959
0.966422370418663
1.140546398242641
1.277881669820371
1.380392479556367
1.430826354775258
1.458537326572786
1.484400604967508
1.505300722805346
1.524349086530153
1.540136601788227
1.556695601106282
1.570034376576025
1.585283920566898
1.69193860001927
1.311291587043894
0.9007130538579234
0.4604763121247895
0.4599907254574184
0.556482990213068
0.6865590424212835
0.7408190344752636
0.7122085697884224
0.681115590401509
0.6877915658399382
0.7458567299939829
0.8014352735439502
0.837032812100041
0.8088812247007072
0.8094360956307516
0.8057020385879257
0.823735586751582
0.8300273492252241
0.8575516586446817
0.8747489471423048
0.9172994967158914
0.9530680839227617
1.011209358141939
1.072644571907799
1.176426052223941
1.447480998565185
1.416154448116397
0.8605610631222642
0.3768237420736591
0.7604471183826591
0.5123049919167305
0.550581479789597
0.557565933703778
0.5898724318914506
0.5973166575096152
0.6324031923376766
0.6446024291003482
0.679795204089255
0.6967864561706817
0.7344104836527872
0.7551031135733708
0.7977056114237303
0.8227588578846824
0.8788292301226792
0.9640362684323508
1.150044714388559
1.276920323686584
1.385033396461185
1.43095185795066
1.461128907441089
1.484322192640001
1.505016146962306
1.522359639769182
1.536668434598075
1.551272407065024
1.565508045611408
1.580067979392509
1.677071581324493
1.298054029396879
1.237320477727214
0.9993921053109467
0.4791751820108804
0.4619601880709195
0.577216866237273
0.6932162481427901
0.7462866249919805
0.7247790151158469
0.6885674718509464
0.6967862999451249
0.7500824996189321
0.8173417683102762
0.8396750564292315
0.8298630206442532
0.8116876992702141
0.8267230030094183
0.8300962653360299
0.8573230863524229
0.8687616608783252
0.9072430474492004
0.9384638053616553
0.9875934919967556
1.044131482939635
1.104428404650865
1.194700133379598
1.445464144654147
1.40932186939329
0.8970740285298016
0.4195168866800464
0.8371982504416249
0.4995361959112827
0.536369150739142
0.5425534121479464
0.5734909402626615
0.5825800449617838
0.615025467262178
0.6251073434099571
0.6602489753485875
0.6749534514780228
0.7117249807516417
0.7311470732393465
0.7698509672321941
0.7942626360271422
0.8376306966074955
0.876710573491761
0.9758455962425672
1.14833821710717
1.282866968809494
1.384387977901439
1.433549014885094
1.461397237015229
1.484600820665013
1.503464017287288
1.519186906948868
1.531870922432375
1.544454969711762
1.559059892735367
1.5731891207985
1.661079967113389
1.305298403895208
1.220735692123688
1.342453209839677
0.9813478766843301
0.4929786448070811
0.4841403281495183
0.5745693014146307
0.7035454342891634
0.7588282213799388
0.7314113514903638
0.7000600965938891
0.7049779913026608
0.7639799455394821
0.8199022461446884
0.8582680451067326
0.8313870674754721
0.8366112185202084
0.8333496004849812
0.8578640215229651
0.8686277823716738
0.9017446093899242
0.9292516997797697
0.9741278201381407
1.023181122925317
1.078092119009739
1.131505579815853
1.207554427709235
1.43794099307164
1.396166987563162
0.9489917350003956
0.4455869151966818
0.6964529165898097
1.12729279950156
0.4874066298368029
0.523275540426168
0.5286304205159666
0.5589255878718175
0.5666256782649335
0.5987191331690016
0.6076891533740549
0.6422274615629981
0.6556940145747009
0.6899829331534552
0.7085117776829586
0.7450638862386391
0.7678085271354983
0.8080898413668085
0.8359273884575037
0.8889691066570954
0.9755808536663172
1.155357555908319
1.282606537576394
1.386523568792615
1.433607858961499
1.46206099840711
1.483597200605342
1.500815826259719
1.51458382185474
1.525643535359094
1.536086539332555
1.550891142925347
1.565679829613932
1.652398144038634
1.488946749784396
1.173270945386009
1.288767087671826
1.305112570014508
1.037813305880747
0.519609342898664
0.4865844350756555
0.5978028837770243
0.7106450154023354
0.7660232459205023
0.7462685224386143
0.7088712749619117
0.7166732768232351
0.770511701131072
0.8378901604757196
0.8628806570927711
0.8567893820349064
0.8395480662525273
0.8617786203124802
0.8692760987672524
0.9017971805065217
0.9245743399341068
0.9658246418925186
1.011301618412229
1.059532266658798
1.107557549399754
1.151255279758493
1.212361910720109
1.428033381922374
1.376480924452791
1.009750613789381
0.6139512513976483
0.6794688551113266
1.113413339307164
0.4757196139657487
0.5107328142257682
0.5159383818294707
0.544734318334072
0.5515280714836029
0.5824268855241419
0.5925049550290283
0.6247617007586331
0.6365359517787206
0.6707133278584378
0.6868370953611678
0.7225181686404873
0.7436798670173882
0.7806167670629119
0.8075198823694472
0.8480493529892285
0.8896142416054352
0.9846569804996927
1.154837202307484
1.286016701139797
1.385864438501694
1.434087473767189
1.46129049381171
1.481505365144024
1.496794112767107
1.508557992132325
1.517581821955553
1.52694784276575
1.541823162719734
1.552176362666764
1.613603452616076
1.520706721980673
1.131723763073441
1.222784993658797
1.253884721638746
1.351787234813799
1.049168081638013
0.5306660372853016
0.5126776927209995
0.5972158318942209
0.724043873762955
0.7805792538709002
0.7544890220164325
0.7237407432226284
0.7269737497457399
0.7869857660688548
0.8437921249266407
0.8850135358595761
0.8619987435831068
0.8713739290042127
0.8736801422263997
0.9026094604280697
0.9250601672545707
0.9619338245392711
1.004165382586769
1.049134985869233
1.091059681409019
1.129116726519032
1.159869448828785
1.212607541104885
1.415357175377581
1.433400418859323
1.028529970353734
1.1708754296713
0.5678219003739509
0.6044136819538226
0.9501899852417801
1.272542460413826
1.101590273649883
0.4655325730478688
0.4998679874617892
0.5036399631915144
0.5315844916872028
0.5379715603530798
0.5679759724868781
0.5763125548088156
0.6084695549795979
0.619295827021239
0.6523825007378632
0.6675122767895261
0.7008055348827785
0.7212142617174645
0.7561863909930138
0.7809403828856567
0.8188291373046035
0.8493366533344655
0.8989267567673529
0.9862831009420108
1.159048769205467
1.285935905504104
1.385632202507143
1.432958688718965
1.459384525174149
1.477935397642567
1.491156177006246
1.500580335686261
1.508674455458038
1.516618286573314
1.525801717603659
1.537714138207524
1.583681110661871
1.569052064340537
1.105314015335558
1.174500086496995
1.197880311817602
1.293820472591001
1.338280503335178
1.091760672009115
0.5690150029799481
0.517631761907364
0.6240803307939303
0.7327941127354493
0.7902861047041334
0.7728914919553125
0.7345269194082175
0.7428716927105017
0.7971659335178036
0.864821760500075
0.8932794198118466
0.8915371119221968
0.8828288018530688
0.9070817374494281
0.9267234504067585
0.9628004994090251
1.001111966008617
1.042985290040985
1.08206519836945
1.114456652517874
1.139246403615528
1.163290608318369
1.208770353854743
1.402524368723725
1.439254287892684
1.444099396609544
1.016360217962566
1.13613930923261
0.6915977176972697
0.5984345710419527
0.9686292237236197
1.227392260009472
1.115256037995051
0.4586046048304421
0.4888770005777172
0.4921505813017831
0.5187882139009602
0.5251806742236952
0.5536820942118522
0.561666353615218
0.5921288954194275
0.6039290049856401
0.6348994188466681
0.648693756387153
0.6817495804465644
0.6995532517879388
0.7337685895906828
0.7568410171899242
0.7917473085659711
0.8209157699053158
0.8585267758851312
0.9019254361902596
0.9927586816464692
1.159158052356852
1.286878633436935
1.383704806093139
1.430714632813783
1.455875330066651
1.472478573292772
1.483324283343632
1.49167068164123
1.497931020758306
1.502399005852115
1.528260258964172
1.504882190347676
1.534813218944946
1.585562727349398
1.571690493928382
1.081670560351887
1.146448521795087
1.153104530113335
1.233063641405812
1.270954013818418
1.362755192603788
1.132371468195323
0.5876188629185193
0.5502500785362365
0.6266868802303062
0.750950693625678
0.8076740744404833
0.783422480342034
0.7541678275084799
0.7562300347068771
0.8177943825533247
0.8759724318457308
0.9204348224677206
0.90381343020357
0.9169017454463264
0.9317200956004711
0.9646908848072999
1.002462232269362
1.040602837365951
1.076941808618004
1.106671709382557
1.126212616351417
1.144279052204313
1.162008595078295
1.209625141076205
1.309595808335565
1.454106917096378
1.396981994698171
0.9985357732244521
1.113447238518844
1.257134997321111
0.6823347404439175
0.8145205629616876
0.6118637106905189
1.097026460834028
1.40722132933967
1.134417824464704
0.4507452857875993
0.4766238066034449
0.4819680685589307
0.5073599328662275
0.5126536274975527
0.5406461156853385
0.547605578314863
0.5776137814127182
0.5875258956605204
0.6186876059821351
0.6314212520530091
0.6631002933962106
0.6804650878955985
0.7121281568319318
0.7345440164517109
0.7675551042367096
0.7943325784789921
0.829640768904112
0.8621047533051538
0.9087416610758581
0.9955645802811407
1.160706827456293
1.285970879607318
1.380743698124964
1.426494696151241
1.450266385168412
1.46460922075945
1.47430147213278
1.480264946619518
1.483271528864215
1.48638460038701
1.512698301110964
1.492136478211608
1.524365450971345
1.572125838933118
1.573792121641479
1.056995311133959
1.119221040616233
1.125798881850972
1.184707179587899
1.211872513383687
1.305100662924326
1.358548230616969
1.168387099351035
0.6396834545996611
0.5607434021148088
0.6608262119752711
0.7625442430970403
0.8213251203325789
0.8069381013134992
0.7677653031157928
0.7783435826067646
0.83309314821487
0.9020961119291928
0.9357162153328946
0.9382065063660161
0.9423611915228001
0.9700527060946815
1.004417580156224
1.042081780945378
1.075276286540848
1.102493527531657
1.119623877764533
1.132959374358087
1.143905488059091
1.166253316939869
1.22125203807608
1.18947024801727
1.317604273018484
1.390618017886344
1.452157900884332
1.045683414263343
1.099762657596184
1.264591283204849
0.7143519024043812
0.8881263064925629
0.628668339621704
1.106913793555157
1.257759147765454
1.135852317310765
0.4342446397631932
0.4652251343285638
0.4732623375737119
0.4960068269111959
0.5012666582031956
0.5278776834803993
0.5350430023847963
0.5633088109769625
0.5728406164273137
0.6023663929225611
0.616024059522299
0.6456139919038807
0.6615782946744253
0.693127867918194
0.7129573866394934
0.7451833547120317
0.7703252076777981
0.8028571300449916
0.8336667090120662
0.8689514102124701
0.9130283541296569
0.9999052887030395
1.160429126927201
1.284056695754817
1.375360913969116
1.420041873825162
1.442063598452906
1.455560057351982
1.461921944721195
1.465065181001336
1.467351745229934
1.478917209095126
1.515548622029727
1.495095537538857
1.479765386984964
1.523843747840204
1.575694897311942
1.527517407107409
1.575618735183341
1.030896542973301
1.089478650749552
1.102326826106012
1.156331090467139
1.164734995737907
1.246464162293772
1.28841984338627
1.373366814586047
1.211980301933465
0.68003527146436
0.5988333823615264
0.6710645514687492
0.7872756770454055
0.8431377548157768
0.8223916772167394
0.795033644183811
0.7967349045182063
0.8610345629069696
0.9209715638659657
0.9691000283096433
0.9656263759041842
0.9808862874171589
1.010404322375544
1.043867855314555
1.076533822879725
1.10153708303593
1.116501424224418
1.127670692288967
1.134587807379726
1.151652162357102
1.160529276371676
1.203791788305515
1.188095600862699
1.305569654855566
1.345171149025448
1.436080657223179
1.064043109356281
1.17123475206679
1.361727644314494
0.9861329161413367
0.6646142419674177
0.7692671025769899
1.064317833046373
1.124176806522839
1.366794114995027
0.4245252257022928
0.455168364618054
0.4619535630954827
0.4840742724001061
0.4910170999184507
0.5162602625791739
0.5225267963100427
0.55021126808401
0.5588001410820232
0.5879177843245497
0.5994877027078395
0.629485292004651
0.6444740373279417
0.6742154395071545
0.6939019487446412
0.7235661399106658
0.7480539388971434
0.7788137432569265
0.8071701763395294
0.8403147197050448
0.8737290149292607
0.9180848480715667
1.002931757740382
1.15953713636637
1.280702105727296
1.36824547948794
1.411027257668308
1.431950280597211
1.441627168830277
1.444813508589001
1.464663877948576
1.447246236956661
1.461102523665756
1.463135971921567
1.506008375122743
1.487914119885499
1.472113654319462
1.511388553932817
1.558537537244601
1.516105234206384
1.576242000602677
1.002739984545371
1.057473811427873
1.076353437138602
1.12868675234454
1.136666786995604
1.197699045912442
1.227566424689813
1.3174668304769
1.373862162023872
1.251791489009097
0.7404352018681668
0.6190945404983914
0.7096886557431891
0.8031183691808619
0.8646914369235108
0.8518668174641726
0.8167658576709408
0.8283105070048496
0.8866460657858918
0.9549616046649603
0.9990074658458983
1.004888073868953
1.021175980950974
1.049786196696759
1.07804162674886
1.102349642978684
1.116174966797141
1.12559857871544
1.130977184544184
1.142616442509087
1.152567222850639
1.145324941129548
1.160306573576387
1.199729239160081
1.17384941214691
1.24334339152019
1.337035423798552
1.363641129590197
1.100426490724789
1.135729182816026
1.363852960341558
1.042397883430705
0.6686010505922012
0.8129973299070293
1.098310345357512
1.139862414964557
1.395226799851872
0.4145461157074776
0.4449821325533033
0.4498903823271176
0.4724467152069298
0.4819135453811872
0.5044010042042708
0.5112098300824623
0.5374330845475617
0.5460592202606976
0.5736433688047206
0.584878179167319
0.613262603954551
0.6286957053969328
0.6568049010889488
0.6749656127834386
0.7045740675385973
0.7264961377250143
0.7564901142893594
0.7832623400818365
0.8137128336117
0.845359278519806
0.8790598102814692
0.9225907776508167
1.005706324430747
1.157185157932138
1.275605327090762
1.359131848617281
1.400221040148824
1.416872992138867
1.427929867724334
1.429570866469659
1.452966341998443
1.442756870929962
1.453350496672436
1.463105038953717
1.491876489844147
1.475202148347217
1.470961492199654
1.504723824662417
1.521089968221084
1.570146846219417
1.505101191588261
1.539868272239699
0.9683801250858752
1.028778015602688
1.048618402464122
1.098228443598227
1.112983813592742
1.168849230224223
1.179801572763298
1.259727245175043
1.304762861084502
1.385851629467414
1.279761547677477
0.7974550530760149
0.6594833563141731
0.7321458627553644
0.8362298318582403
0.8907100839650592
0.8805788118083874
0.8519810296172862
0.8596722093062157
0.9228176166592533
0.989446896936053
1.03808579309647
1.044813947598339
1.059626138892821
1.083781302316424
1.104265255186694
1.116887478554657
1.125659546053774
1.129758788061473
1.140280754243885
1.141697031736508
1.148765018085005
1.144756471951702
1.154222034923115
1.181549641886598
1.170376030407494
1.231160933864285
1.270929202820396