/*--------------------------------*- C++ -*----------------------------------*\
| =========                 |                                                 |
| \\      /  F ield         | OpenFOAM: The Open Source CFD Toolbox           |
|  \\    /   O peration     | Version:  v1912                                 |
|   \\  /    A nd           | Website:  www.openfoam.com                      |
|    \\/     M anipulation  |                                                 |
\*---------------------------------------------------------------------------*/
FoamFile
{
    version     2.0;
    format      ascii;
    class       volScalarField;
    location    "3000";
    object      nut;
}
// * * * * * * * * * * * * * * * * * * * * * * * * * * * * * * * * * * * * * //

dimensions      [0 2 -1 0 0 0 0];


internalField   nonuniform List<scalar> 
18230
(
5.589825085998651e-08
2.068102714297467e-08
5.530221498463314e-07
4.42484061633282e-06
8.273917886184932e-10
3.66854153071281e-07
6.111133010149381e-08
5.601372765520113e-06
1.005738256377758e-05
1.896424376516625e-09
1.171992157923709e-07
7.935060357239416e-07
3.218162186726889e-09
2.100587653512917e-06
1.125595058359606e-05
1.586813212830929e-05
2.805313593043904e-09
1.373379624423436e-06
2.599050934147179e-07
1.100235921281235e-06
5.263073067579979e-09
4.288544165703746e-07
3.563067116829277e-06
9.935706645186348e-06
2.147331606290659e-05
2.549025260999067e-09
9.533666270273723e-07
1.385455311203609e-06
4.008351425922566e-07
1.55335309790427e-06
1.085857645687475e-08
2.711620361313446e-06
1.358083926059324e-06
4.437799644041787e-06
1.054320833410991e-05
2.585775693522875e-05
3.394456134204821e-09
1.274164129374258e-06
2.274695508447447e-06
3.777818261150962e-06
5.399555275387593e-07
1.996428226912872e-06
2.036513420082614e-08
3.64730528623512e-06
6.075398136612065e-06
1.872139355142073e-06
4.845735977901649e-06
1.452458795081941e-05
2.910588378650946e-05
3.444821731596635e-09
1.479787013610696e-06
2.765119137662791e-06
2.682878528236543e-06
2.49391132433077e-06
7.071103701851e-07
2.498247978617972e-06
2.065974629169141e-08
5.431424844073287e-06
1.027731200751795e-05
6.915039465923464e-06
2.423743644686566e-06
6.184578805564567e-06
1.873302371009903e-05
2.722127738694094e-05
3.045977677497615e-09
1.507397632326169e-06
2.837119223851734e-06
2.573979912001428e-06
5.769198324318009e-06
4.219307425926484e-06
9.125806998024654e-07
3.083077615819221e-06
2.389795776891135e-08
5.150670631597562e-06
1.238875654106291e-05
1.760368077568622e-05
8.042617148514171e-06
3.212371995987505e-06
7.288142043450912e-06
2.783483330657161e-05
2.378657593396187e-05
3.135524955733027e-09
1.456737078801647e-06
2.833891243633343e-06
2.737725311514363e-06
5.989408248305849e-06
6.530307842546614e-06
3.36406080814269e-06
1.178414280723929e-06
4.066921463510179e-06
2.188567844798544e-08
5.522614787865139e-06
1.240655048739417e-05
2.14618454877746e-05
2.197999047451368e-05
9.91002784231499e-06
3.968500665398115e-06
8.770481221409933e-06
2.817810829315603e-05
2.31350751834293e-05
3.167474391298039e-09
1.380584136896261e-06
2.855879158355327e-06
2.708090066489288e-06
6.337189712010601e-06
6.018411074497552e-06
1.255649290611424e-05
4.402419965494474e-06
1.616293667212686e-06
5.17762529226153e-06
2.19543008063074e-08
5.41882970101984e-06
1.280112453129468e-05
2.15051241860884e-05
3.268333779332615e-05
2.6013856389796e-05
1.184675640230366e-05
4.878200318031199e-06
9.70407856976066e-06
2.932281970408311e-05
2.401733709509947e-05
3.089964923904983e-09
1.378339441638035e-06
2.943720517147848e-06
2.608528622945525e-06
6.53820985217694e-06
5.66882612270761e-06
1.274536721853702e-05
1.739202259332184e-05
4.36610297544215e-06
2.122071630637438e-06
6.296355479211767e-06
2.469544559653799e-08
5.258583166124244e-06
1.26756656370048e-05
2.177192302855664e-05
3.261325600804376e-05
4.643280641347775e-05
3.099971602059029e-05
1.59030832264478e-05
6.129316090944959e-06
1.065716823503091e-05
3.117771915804451e-05
2.571483925453523e-05
2.957070699187527e-09
1.348948655193978e-06
3.052121791985406e-06
3.036125754037715e-06
6.711706988724681e-06
6.081247951959141e-06
1.337040439457521e-05
1.361067065820994e-05
2.370881826822931e-05
5.453012384894205e-06
2.587039419973256e-06
7.471586451226845e-06
2.476394434305995e-08
5.367225080424781e-06
1.242122661034186e-05
2.150963092184945e-05
3.271183647166796e-05
4.602622815378201e-05
6.287966144549185e-05
3.481931482387147e-05
1.939505512460881e-05
7.559176176544483e-06
1.205419212752755e-05
3.377588157280982e-05
2.947075673290374e-05
3.172774984156146e-09
1.379656168846889e-06
3.229320605225448e-06
3.14884291277578e-06
7.032222444449791e-06
6.356787355791633e-06
1.369759904097277e-05
1.33136859023469e-05
2.366018641876429e-05
3.060562001356149e-05
5.759168336449805e-06
3.049869323391029e-06
8.694623564929337e-06
2.411651134411561e-08
5.388483826991715e-06
1.263045889834835e-05
2.117188791223625e-05
3.24313683492117e-05
4.613987186367373e-05
6.222699630341702e-05
8.216645323984645e-05
3.971315573039255e-05
2.38096049197107e-05
9.204192993242049e-06
1.431708439294045e-05
3.682668202972868e-05
2.843245573047973e-05
3.603161769149545e-09
1.686301909392173e-06
3.587704849165673e-06
3.411519215292334e-06
7.384926074799607e-06
6.872377800544627e-06
1.409663969264074e-05
1.354502588999531e-05
2.445172943540605e-05
2.934722623536067e-05
3.872679243491755e-05
7.163030874199834e-06
3.6106846840585e-06
1.007595965541724e-05
2.682256367542903e-08
5.302941755874709e-06
1.253424272621331e-05
2.140230108844189e-05
3.211908752873927e-05
4.577731791765435e-05
6.230718357226946e-05
8.160404721527294e-05
0.0001047451547018537
4.615245202230402e-05
2.920516281219229e-05
1.139790084218835e-05
1.748706162913308e-05
4.058835486246776e-05
2.537316217281145e-05
5.035843606298319e-09
1.841668480483854e-06
4.262394770077012e-06
3.396569966325255e-06
7.870530472273146e-06
6.787848474849995e-06
1.462347983518572e-05
1.421183716615001e-05
2.493362471310729e-05
2.923693243761173e-05
3.824537079662045e-05
4.773704889333075e-05
8.374504186451471e-06
4.323436925155838e-06
1.17532523540029e-05
2.620269699912715e-08
5.637248382080063e-06
1.225221404067548e-05
2.116780077831567e-05
3.227974683723503e-05
4.54208162617456e-05
6.181598258333091e-05
8.145852769385602e-05
0.0001040484057926497
0.0001309174403884587
5.3135875533115e-05
3.466585859610206e-05
1.42186065245829e-05
2.177142911203713e-05
4.523883575955338e-05
2.413616029617518e-05
6.882846051569073e-09
2.506778853419591e-06
4.822056909340632e-06
6.287071120310489e-06
8.653715769207044e-06
7.024598197064173e-06
1.526392101183946e-05
1.373992779125616e-05
2.565945412141553e-05
3.01405994579979e-05
3.933109928331236e-05
4.721598985782905e-05
5.790650494577338e-05
1.015184283105795e-05
5.235908034702075e-06
1.381475529318516e-05
2.661238276273353e-08
5.661329263491303e-06
1.254854915204331e-05
2.07993835066096e-05
3.206285198345973e-05
4.54568583129039e-05
6.132556762112854e-05
8.070226645592293e-05
0.0001038642879644708
0.000130105650685451
0.0001605801445905232
6.170404120273224e-05
4.29129477873954e-05
1.84491026781323e-05
2.770705985473098e-05
5.103207033420619e-05
2.463202164274681e-05
6.713792644086831e-09
2.863795751651685e-06
5.434796791487198e-06
7.747584035088704e-06
1.01850293586311e-05
8.095821061203237e-06
1.598336200478285e-05
1.469436528745448e-05
2.63571068091625e-05
3.03813323215123e-05
3.995678788452441e-05
4.846190984286482e-05
5.737338026113894e-05
6.974539825443853e-05
1.209705544868303e-05
6.441358301972241e-06
1.647352404008534e-05
2.724849443210625e-08
5.493363028935712e-06
1.266423227838821e-05
2.112920973057241e-05
3.153049103396578e-05
4.527445621974184e-05
6.123210527455533e-05
8.009206417488962e-05
0.0001028766100612572
0.0001299436787890808
0.000160167318840262
0.0001853626794042412
7.182547688930406e-05
5.430888558103561e-05
2.34720852485872e-05
3.565330246686214e-05
5.840589372922875e-05
2.699446507241319e-05
7.172876366080967e-09
2.675108350702322e-06
5.661789132752162e-06
8.913200661624741e-06
1.177873472168961e-05
9.006594456673885e-06
1.725395631996512e-05
1.544332542922068e-05
2.723135091569197e-05
3.065502723642028e-05
4.097183923571253e-05
4.922126876637821e-05
5.877957716286688e-05
6.947165705313912e-05
8.361457914698496e-05
1.456455595799278e-05
8.095038388992246e-06
1.988100988289953e-05
2.570551749598141e-08
5.77954189688852e-06
1.244562652110831e-05
2.105871279811256e-05
3.181007663112432e-05
4.450987032882666e-05
6.099626813441294e-05
7.992050702719564e-05
0.0001022425437619655
0.0001289073583711861
0.0001598997080943305
0.0001941994427320335
0.0002087561893514185
8.361640826653587e-05
6.950895013489544e-05
3.00498098383822e-05
4.62236185450791e-05
6.894374878956442e-05
3.040771207202161e-05
7.905314821138713e-09
2.692956022218303e-06
5.341440139362242e-06
9.051260970914021e-06
1.300213918300636e-05
1.562443652743778e-05
1.9523696207579e-05
1.601486587113715e-05
2.816420128999621e-05
3.061385199825341e-05
4.199085765846001e-05
5.034875829177351e-05
5.96903228601876e-05
7.099168923456158e-05
8.360621868818735e-05
0.0001002466906200916
1.753933779789479e-05
1.031591213130914e-05
2.424514777340421e-05
2.870353116705093e-08
5.670323680014734e-06
1.27777895021604e-05
2.095569281437964e-05
3.179824087427998e-05
4.47511688778544e-05
6.029376973163216e-05
7.958416204785635e-05
0.0001020138603158485
0.0001279368244805866
0.0001589177349388402
0.0001938495803561567
0.000232215455123126
0.0002385461735668071
9.667204508433088e-05
9.041425603358677e-05
3.864091566879979e-05
6.045395071818481e-05
8.32191818804874e-05
3.351496466401952e-05
9.142287308217309e-09
2.781650839653526e-06
5.446332968201894e-06
8.449953800994513e-06
1.297127394586898e-05
1.773267509312285e-05
2.166659981192052e-05
1.969061387651778e-05
2.974634544324951e-05
3.180513813525494e-05
4.310361092041765e-05
5.147565685272451e-05
6.095896555629599e-05
7.21164276315538e-05
8.528413411601176e-05
0.0001007675818548619
0.0001200516803738711
2.12606881354043e-05
1.334226578411122e-05
2.917451051483949e-05
3.37245680496325e-08
5.946671181741021e-06
1.286870281262052e-05
2.160817216829079e-05
3.156838463889722e-05
4.486569591270527e-05
6.047796467580991e-05
7.884736925028626e-05
0.000101400787671804
0.0001277238710463337
0.0001577804105958127
0.0001927597045555628
0.0002318166158972224
0.0002739941286681442
0.0002678195522805383
0.0001127414714742822
0.0001163806141900434
5.006913054360897e-05
7.935090247541718e-05
9.940793227475477e-05
3.713168838481025e-05
1.118617167199931e-08
2.944056884888846e-06
5.667903470074728e-06
8.385069334295262e-06
1.248319348339227e-05
1.618118411853421e-05
2.325349127369115e-05
2.33824693700666e-05
3.257183062731178e-05
3.252702211007546e-05
4.436903082312691e-05
5.272938234245573e-05
6.231270514175866e-05
7.359736061306595e-05
8.671385432128591e-05
0.0001025806324265995
0.0001211391588036313
0.000144038813545067
2.563438425247126e-05
1.7462007202791e-05
3.610325676040114e-05
3.88918562613526e-08
6.176914032264344e-06
1.38105360986308e-05
2.20066637981843e-05
3.248347580849066e-05
4.452295687038637e-05
6.032348768697969e-05
7.900822310105708e-05
0.0001006388689869099
0.0001269373568702814
0.0001574402358601622
0.0001917604714812499
0.0002307313669605927
0.0002736981907870046
0.0003187052214341617
0.0003084461381834925
0.0001292095174333959
0.0001598633500937165
6.360329454466594e-05
0.0001044193832346889
0.0001183194940054437
4.149551096675402e-05
8.988943124954986e-09
4.028730837787931e-06
6.111123616707606e-06
9.297824294398318e-06
1.301508293586018e-05
1.328346662518389e-05
2.343474863275944e-05
2.653428992960772e-05
3.564685092854486e-05
3.468811240859599e-05
4.651989860859559e-05
5.425610664347149e-05
6.377369465044451e-05
7.522533749973839e-05
8.846832029597889e-05
0.0001043789624635465
0.0001232750762153378
0.0001459969534103722
0.0001664846389454911
3.114939388989708e-05
2.310942680967285e-05
4.570317719395375e-05
4.241962420891094e-08
6.472036020346164e-06
1.429399061829581e-05
2.353344731809438e-05
3.341724637236557e-05
4.572714351857148e-05
6.019045828938774e-05
7.882691932126977e-05
0.0001007931904573314
0.0001261932719612693
0.0001566606708362382
0.0001913313199127375
0.0002297724982353699
0.0002726884783357984
0.0003187185884604553
0.0003650378526707319
0.0003433295415596984
0.0001506068442832442
0.0002021995344126109
7.851438596127226e-05
0.0001319112149653366
0.000140689853483028
4.687903591094311e-05
1.150510809919766e-08
3.048438824720812e-06
7.028248026630875e-06
9.981190950163118e-06
1.357063659432505e-05
1.471425357247268e-05
2.335140978183019e-05
2.445449955474556e-05
3.771308860393033e-05
3.969140521663707e-05
5.041743011823281e-05
5.674447482190317e-05
6.556275029097946e-05
7.70191353152233e-05
9.039814595900676e-05
0.0001064764685104517
0.0001254914978058208
0.0001484234103747731
0.0001758440208299919
0.000190560951741128
3.79146216621681e-05
3.061418941479707e-05
5.980927591295338e-05
4.287559583861862e-08
6.709741711152005e-06
1.46088369917498e-05
2.415198806834349e-05
3.559442423777125e-05
4.744948725525596e-05
6.185258909670744e-05
7.902487298901241e-05
0.0001006236412930628
0.000126279656586183
0.0001559319035530364
0.000190382897052075
0.0002292959775969168
0.0002717350691988973
0.0003178718280345777
0.0003654443520866545
0.0004110807429525803
0.0003950757327092748
0.0001673592031118677
0.0002091486185963684
9.539605277295184e-05
0.0001617562977252268
0.0001644691595893
5.342642548573242e-05
9.327665893681386e-09
4.10418976951011e-06
6.133630703475086e-06
1.069246730371285e-05
1.449598452075167e-05
1.611750468670113e-05
2.409309801657862e-05
2.311831296078216e-05
3.836256659238962e-05
3.984254962471738e-05
5.475413746087097e-05
6.143685355259182e-05
6.846266722966419e-05
7.913548223581762e-05
9.264199542096e-05
0.0001088034340798257
0.0001280072490642419
0.0001511364673769055
0.0001787189150686318
0.0002116290301888664
0.0002155844192175564
4.616694025744796e-05
4.015114557812418e-05
6.278723797846541e-05
4.795275281781451e-08
6.890776031422431e-06
1.47309337089266e-05
2.450832168578545e-05
3.637718090159246e-05
5.035725747909354e-05
6.440630972189958e-05
8.117181368501054e-05
0.0001011792123572064
0.0001261893971903982
0.000155882665685298
0.0001896702529742467
0.000228212569234845
0.0002711629568150899
0.0003168056635035516
0.0003648108675204765
0.0004118742321473823
0.0004542624839357275
0.0004388848000040023
0.0001918226978183221
0.0002092892237647122
0.0001168852441790333
0.0001983192646278533
0.0001896713597004581
6.116404417842581e-05
9.551064560847783e-09
2.752293073610892e-06
6.970058829798643e-06
9.826798315416077e-06
1.502901325382334e-05
1.939108373257331e-05
2.521191235846929e-05
2.311683026603105e-05
3.874353249318863e-05
3.70269874635139e-05
5.817947459208667e-05
6.683381509124232e-05
7.426601365326832e-05
8.266584768997703e-05
9.512988694289439e-05
0.0001115500826081933
0.0001308183126372725
0.0001541811952730791
0.0001819912414493647
0.0001965607745902971
0.0002168774134826819
0.0002288475985959959
5.601878268357194e-05
5.179923503256079e-05
5.864043586669742e-05
6.556240877921304e-08
7.215810058064967e-06
1.509888455595808e-05
2.454669728725711e-05
3.670544475503391e-05
5.109718962810516e-05
6.800718185747614e-05
8.450064286348117e-05
0.00010384000408412
0.0001270100303816232
0.0001557004128544461
0.0001896480339347163
0.0002274281633412384
0.0002701323582340066
0.0003161132132439009
0.0003636809105895418
0.0004112115826438859
0.0004553716386268256
0.0004912224319720317
0.0004876034696243396
0.0002078343714192687
0.0002189166954157975
0.0001395953834687515
0.0002446201245866176
0.0002190237659856968
7.016006223363175e-05
1.014334596794571e-08
2.787762155588268e-06
5.602291515663535e-06
1.037623208876495e-05
1.420329060649535e-05
1.935969503382729e-05
2.600730200548184e-05
2.560333202356036e-05
4.011178978113585e-05
3.595024315793838e-05
5.971557750104097e-05
6.060979500217742e-05
8.116848623064218e-05
8.978034330147858e-05
9.941871220467523e-05
0.0001146629984314386
0.0001340118365807692
0.0001575738291711593
0.0001856461266299065
0.0002111135067637248
0.0001991608200306743
0.0002056217393804856
0.0002309704839640919
6.687368367857856e-05
6.469895869110196e-05
5.328831264682875e-05
9.48443209299115e-08
7.941452408343515e-06
1.6093791273651e-05
2.521410088095357e-05
3.654254278747129e-05
5.12322564666251e-05
6.84560369824271e-05
8.857977489527939e-05
0.000107802887489615
0.0001301990255146427
0.0001567774741932716
0.0001893516303820692
0.0002274056471445291
0.000269397052189231
0.0003150190624285763
0.0003626815730477453
0.0004098942233112866
0.0004547565946048723
0.000492502967921893
0.0005183704627594384
0.0005309837207997578
0.0002320665530026516
0.0002276829224777773
0.0001566960687595326
0.0003063898499909943
0.0002478046274931205
8.096591067016255e-05
1.086458092644859e-08
2.812568918697491e-06
5.592625095037364e-06
9.116256236201962e-06
1.459035117668936e-05
1.783320732232391e-05
2.613120143453537e-05
2.834957014197847e-05
4.144753282123564e-05
3.773025701850567e-05
6.059003503704284e-05
5.744369156089905e-05
8.719790403178591e-05
9.836031962586861e-05
0.000108206072893693
0.0001197836872470021
0.0001378844033778031
0.0001613487495706126
0.0001896409255534056
0.0002235494752539587
0.0002191660725601881
0.00019770134265692
0.0001951302424811835
0.000224615052025315
7.805735347926348e-05
7.606159309659313e-05
4.821996367149456e-05
1.173117681554131e-07
8.441709989081689e-06
1.787193013350221e-05
2.673125310673226e-05
3.740018618277933e-05
5.102886864544957e-05
6.823410087576007e-05
8.864693712707095e-05
0.0001121768986329175
0.0001347450443756541
0.0001604333360499787
0.0001905445146676813
0.0002272001504190007
0.0002690135499137025
0.0003142482915345103
0.0003614772039129988
0.0004085257237308343
0.0004433585233905999
0.0004921745432353407
0.0004968370222123746
0.0005348684924319764
0.0005261951148018755
0.0002328988310015581
0.0002201937774914238
0.0001629934324331873
0.000386469474895909
0.0002754264895881176
9.282029757238769e-05
1.111068817558049e-08
2.875608517206274e-06
5.645806062439444e-06
8.916801744499321e-06
1.325531700570617e-05
1.724219593329051e-05
2.550607995663593e-05
2.709254269406845e-05
4.196427609699851e-05
4.080586013700067e-05
6.229606007084275e-05
5.582571058326455e-05
8.9909063389018e-05
9.1127318299774e-05
0.0001188948325736371
0.0001304300756070922
0.0001439960478435953
0.0001660152955060719
0.0001941188384756138
0.0002283189372073312
0.0002396749022187856
0.000219935467805443
0.0001973908648663926
0.0001857547653885725
0.0002112151352727728
8.873814452829511e-05
8.379230510082626e-05
4.675749843458039e-05
2.751326424209292e-08
8.416810247836749e-06
1.818012583006082e-05
2.89819154594835e-05
3.98614543043096e-05
5.234511581287898e-05
6.778324945448772e-05
8.793069569416309e-05
0.0001119774858714154
0.0001392808562717437
0.0001654320849864513
0.0001945701094333572
0.0002282538140703189
0.0002685105227391756
0.00031346503516415
0.0003604722571652202
0.0004069772021844237
0.0004296741931961368
0.0004911476223579479
0.0004763231325244615
0.0005365691781532703
0.0005164268299702723
0.0005121067757733798
0.0002071380974663883
0.0001925941102157702
0.0001559075001435208
0.0004537867124148764
0.0002990671430912093
0.0001091639104927932
1.140949081633791e-08
2.874618167966483e-06
5.737398041717499e-06
8.940672740189491e-06
1.336176628448665e-05
1.598690567325093e-05
2.55660006607524e-05
2.587317126799721e-05
4.200832103933965e-05
4.171067396085341e-05
6.349675802946474e-05
5.887521162611744e-05
9.130855139689584e-05
8.667382239468522e-05
0.0001284740291099409
0.0001433915928546987
0.000156807395368839
0.0001733694198456782
0.000199683233500395
0.0002336125023662343
0.0002737983978202648
0.0002419563148442529
0.0002212171394661481
0.0001978146856634645
0.0001803646965581677
0.0001977311987655096
9.817406555230807e-05
8.63860365774188e-05
4.94090840992898e-05
7.607692835175034e-09
3.780162312623763e-06
1.663190548111312e-05
2.864611959341567e-05
4.236002016415534e-05
5.556793364135155e-05
6.947371427721511e-05
8.7247171923766e-05
0.0001105350683963794
0.0001383768716186362
0.0001698536011386942
0.0001995219874819263
0.00023202217529876
0.0002685900555014542
0.0003124020943147096
0.000359241552608492
0.0004055224405361192
0.0004204993782437039
0.0004896391040342626
0.0004626608610731447
0.0005364307773521613
0.0004871846245864705
0.0005131571769673805
0.0004596285945496937
0.0001615286216741729
0.0001529725099649928
0.0001402305627589921
0.00049513717942068
0.0003310775755410197
0.000103694920685918
1.169254107590402e-08
2.875165499754322e-06
5.683999908609998e-06
9.229858886190518e-06
1.35640524124639e-05
1.560184299730271e-05
2.456676391448455e-05
2.633626881086718e-05
4.164167092800058e-05
4.167333767165655e-05
6.405034464069273e-05
6.057681194476866e-05
9.305918956607158e-05
8.661376516384956e-05
0.0001323151676733165
0.0001379125193736298
0.0001725370278890976
0.0001885976843348789
0.000208484015628797
0.0002401382890519793
0.0002800664023032939
0.0002769715671374394
0.0002448848615040695
0.0002217829241970844
0.0002005737304536644
0.0001794659811476816
0.000189002972710431
0.0001079417926304812
9.007709219895046e-05
4.57522930388519e-05
6.075871749822743e-09
1.916329778962033e-06
7.428373439526684e-06
2.525633992128438e-05
4.064328956557875e-05
5.770005008038392e-05
7.320994105053112e-05
8.898122467637369e-05
0.0001094226899874885
0.0001358078895010518
0.0001678238231524934
0.0002031455796381708
0.0002362175028527884
0.0002721521662037505
0.0003116376087925109
0.0003537522613075478
0.0004037525767022639
0.0004145204808551525
0.0004876022086123237
0.0004517638037732167
0.0005297812123701053
0.0004680535721521444
0.0004775723907749953
0.0004581553902542204
0.0003954989334583533
0.0001141507219852468
0.0001131850170871981
0.0001188828909134713
0.0005329449475309993
0.0003015328089293877
0.0001543596090392412
0.0001896988695290857
1.187118750809834e-08
2.875781864349967e-06
5.723879111313002e-06
9.126238765551716e-06
1.362912361475102e-05
1.627249128713418e-05
2.475325067948088e-05
2.504698841852341e-05
4.131911611613689e-05
4.157085674540114e-05
6.388804098602867e-05
6.258215647205995e-05
9.413531659046353e-05
8.890256191635539e-05
0.0001340279714300064
0.0001310537087864504
0.000186529830644435
0.0002072328591083661
0.0002263877295854258
0.0002506156213336464
0.0002876137243466334
0.0003081376120675146
0.0002779499085531352
0.000245937945751276
0.0002227765547822304
0.0002022920418695462
0.0001813862547398378
0.0001914264480355761
0.000114449522565385
7.380636551204284e-05
3.483832968671674e-05
6.540855040466775e-09
2.279869696488067e-06
4.600271030359497e-06
6.479439526642113e-06
3.470220946319305e-05
5.358707911266375e-05
7.440703972497962e-05
9.271229480005e-05
0.0001111891683170972
0.000133990952738339
0.000163756893142091
0.0001998572160467338
0.0002386692745413953
0.000274998079047889
0.0003134969529942418
0.0003303146353737563
0.000401420062136729
0.0004035607227012885
0.0004851564380977685
0.0004470969732183471
0.000513917645029925
0.0004534765146551303
0.0004539739069255724
0.0004370515975002981
0.0003941060880335762
0.0003291452574621459
8.097242361914059e-05
8.355880215958522e-05
0.0001006656013804913
0.0005408913658216713
0.0005538285583335365
0.0001270177198930676
0.0002473503118595596
1.162479148676523e-08
2.865244708513981e-06
5.772865067121794e-06
9.099770190930537e-06
1.35584188816636e-05
1.671935336998613e-05
2.488208483791892e-05
2.494737945089761e-05
4.063561098331691e-05
4.158322455584894e-05
6.365075329297703e-05
6.228110537236308e-05
9.450189633154342e-05
9.200050581426882e-05
0.0001357201409181414
0.0001303503643238375
0.0001918470487300098
0.0002126667222200248
0.0002485493550081367
0.0002717756932549382
0.0002860480665400879
0.0003046297134306642
0.0003016415460426231
0.0002733019461593945
0.0002452923235615905
0.0002210923711956645
0.0002059877567783938
0.0001896645749874499
0.0001830269410199281
0.0001075748452027655
6.771707879545935e-05
3.937896532623368e-05
7.104722734101154e-09
2.857029983125494e-06
5.680165637773244e-06
4.845060860370964e-06
1.195043014552626e-05
4.352387960129034e-05
6.678287213920219e-05
9.204097190840255e-05
0.0001140681367987621
0.0001354464580258283
0.0001607569753523849
0.0001941089874371064
0.0002338242983825738
0.0002756458143889186
0.0003142723465784301
0.0003504100975907322
0.0003987115685575132
0.0003750855730639932
0.0004821727769474928
0.000439486246852491
0.0005054617360397611
0.0004412849414613537
0.0004371568114127619
0.0004125184833628782
0.0003941546717596971
0.0003732889345239361
0.0002450382314164681
6.721768346351995e-05
7.556189360461786e-05
0.0001920022749874421
0.0005835298993585334
0.0001159392763089685
0.0005246424864250112
0.0002520970134552258
0.0001542141721863097
4.095125656793592e-05
0.0002486412667894401
1.162726330407735e-08
2.867774175158584e-06
5.762015671719683e-06
9.388656525934346e-06
1.369418993738679e-05
1.624237840350988e-05
2.500685543088706e-05
2.55027514384622e-05
4.097470947638392e-05
3.999263418420786e-05
6.321019122200836e-05
6.24141270164457e-05
9.438571982065334e-05
9.305095845331078e-05
0.000136674316022907
0.0001339201322248521
0.0001939129729586766
0.0002004692982003983
0.0002677885726527332
0.00029766346619013
0.0003250156210138418
0.0002791221889228506
0.0002922128327740365
0.0002883869334029355
0.0002646742872214937
0.0002379045176478062
0.0002219062029012735
0.0002139978300189153
0.0001876746928994836
0.0001860459125470335
0.0002378000236151824
0.0001058653835287102
0.0001398592107950677
7.568788372194891e-09
3.177488407660475e-06
6.234310237440762e-06
7.15569924570011e-06
1.214451151812513e-05
9.628392299847501e-06
4.765704079153673e-05
7.976076759241282e-05
0.0001102891303998377
0.0001367767397742963
0.000161051528755318
0.0001892779523987177
0.0002258007239319126
0.0002686403792530183
0.0003124390402947358
0.0003524214864631938
0.0003931725903915488
0.0003939404004556797
0.0004773766911098814
0.0004349893292560749
0.0004941778567179848
0.0004335680239927053
0.0004234877663907016
0.0003949664249532708
0.0003826882394831134
0.0003759515805108726
0.0004322033607908753
0.0002093877418631816
6.92118787596956e-05
6.791613148021238e-05
4.278794216343591e-05
9.735734999538804e-05
0.0005625170251267165
0.000200591823007752
0.0006519483431170433
0.0001974781270374942
0.0001622319684137132
4.93458364283516e-05
0.0003869117546680844
1.339648824217102e-08
2.856437316328011e-06
5.732327147705562e-06
9.354443687829287e-06
1.366573752953815e-05
1.693655092445001e-05
2.496132326643282e-05
2.589276530994097e-05
4.112625596039467e-05
4.055785209916036e-05
6.302134632766328e-05
6.150096953776407e-05
9.435334314397062e-05
9.282225044753104e-05
0.0001371110513007213
0.0001365580567309988
0.0001956276285680549
0.0001992966170772157
0.0002753041948610814
0.0003152280683218866
0.0003486900973409675
0.0003232774039725358
0.0002693752549517082
0.0002720684984302325
0.0002698375310178553
0.0002483182472897049
0.0002349075380299709
0.0002260969921443698
0.00020655372740597
0.0002018423624403182
0.0002435762380252844
0.0001771187897988714
0.0001132748472719651
0.0005877651645560662
4.542315866446385e-05
7.753442326206834e-09
3.320026871827619e-06
6.431218036642365e-06
8.520527773093701e-06
1.342302054873061e-05
1.269427762896887e-05
1.300667636241536e-05
5.675149456829192e-05
9.020892345585793e-05
0.0001285007845341022
0.0001598812678202949
0.0001873901400090407
0.0002181512628247833
0.0002575846344665857
0.0003027342205553069
0.0003473108905219167
0.0003870358647096855
0.0004071149061883546
0.0004672749272701368
0.0004245661142723789
0.0004846371259862949
0.0004285624304097021
0.000414630172425119
0.0003804101693386432
0.0003622024963382642
0.0003773762384847551
0.0004400789170946229
0.0004241882906184998
0.000221293158721309
0.0002050375898548453
3.821718803044095e-05
0.0001111557608083776
6.719984555885779e-05
0.0006164389337344468
0.0004079071630422133
4.57197526112976e-05
0.0006002992026010632
0.0001709553341866236
0.0003164139570080778
0.0002771435488242148
2.403227807126001e-05
0.0001506469894282916
1.61191599264867e-08
3.010035462057239e-06
5.820614774966407e-06
9.115052538888941e-06
1.363961578638035e-05
1.661225100965049e-05
2.502240823584558e-05
2.573074115193185e-05
4.12045816215419e-05
4.111449834879685e-05
6.340166231999068e-05
6.163234086482077e-05
9.417888554779393e-05
9.293490029390314e-05
0.0001374310305687028
0.000137150619593821
0.0001967325330540653
0.0002036429017457592
0.0002778130725428326
0.0003069285487803298
0.0003826485592288104
0.0003422663695090529
0.0003114791086978247
0.0002520704077960105
0.0002486482992692334
0.0002467343569801398
0.0002420950556606633
0.0002306336292099979
0.0002050722884964595
0.0001770583058014733
0.0002144255481811374
0.0001838471717953793
0.0002237458014348437
0.0002712086931530905
0.000123490852968464
0.00139809435898159
8.260541048777441e-09
3.352824598236167e-06
6.685305183711667e-06
9.887297636531183e-06
1.446087112703131e-05
1.290966798859562e-05
2.550118532749864e-05
1.551995804728142e-05
5.514623814832038e-05
0.0001051086100212091
0.0001292702634145784
0.0001826004088554601
0.000213120970232756
0.0002321999034149075
0.0002867697861871585
0.0003340787452649651
0.00037755563735673
0.0004127349871663996
0.0004524362200325755
0.0004116349554368401
0.0004738262830186573
0.0004185959678118939
0.0004088657552130175
0.0003731830202177833
0.0003458238184119429
0.0003780450805800768
0.0004436162335050326
0.0006318086850223769
0.0004791370735658065
0.0002530714365944956
5.689846556125608e-05
0.0001529413303646459
7.704605242956422e-05
7.161740965477694e-05
4.864087106653114e-05
0.0005510952994538479
0.0003307943927972603
7.34562762988641e-05
0.0007255020460972623
0.0001669963894722031
0.0002602546846983927
0.0004088739911095102
3.561662438423035e-05
8.500228443361339e-05
1.259836841657235e-08
4.193448224551712e-06
6.228596013070084e-06
9.472282235816774e-06
1.356076805543854e-05
1.672054340590655e-05
2.512680765827432e-05
2.570367176527364e-05