/*--------------------------------*- C++ -*----------------------------------*\
| =========                 |                                                 |
| \\      /  F ield         | OpenFOAM: The Open Source CFD Toolbox           |
|  \\    /   O peration     | Version:  v1912                                 |
|   \\  /    A nd           | Website:  www.openfoam.com                      |
|    \\/     M anipulation  |                                                 |
\*---------------------------------------------------------------------------*/
FoamFile
{
    version     2.0;
    format      ascii;
    class       volScalarField;
    location    "3000";
    object      omega;
}
// * * * * * * * * * * * * * * * * * * * * * * * * * * * * * * * * * * * * * //

dimensions      [0 0 -1 0 0 0 0];


internalField   nonuniform List<scalar> 
18230
(
31166281.08525505
11944528.76732585
44012608.3389293
8063909.827823508
9104657.063396992
17025338.43220731
32704036.89643198
11643459.47366802
4480293.794056097
14682247.08801194
17365520.83222207
15602854.27935884
14472564.1665359
29762062.13416424
6981185.53713835
3193656.532042386
18118328.92128517
10801319.36734801
15564989.34811088
14247518.05547329
26131178.15274946
18897917.2485899
20356787.31453403
5236645.747176249
2528724.51358752
16512091.27637656
13252890.0345782
6248979.102879578
13058478.81771899
12874126.75140992
32318466.22504476
11525623.44979521
15620026.83401831
16014236.60922448
3914682.844889075
2200360.997666437
17166845.13768114
10325138.68332402
6084764.433064638
4044170.845934029
10531270.1028887
11692954.61827531
36262485.24935699
11184681.48409424
5802428.108479351
12417397.24985063
14056198.61283539
2969259.784574542
2068724.829831176
18059090.19061538
10427070.50818292
5532346.50991645
5148256.484077693
2895805.600204172
8345954.046388575
10808531.93697029
34337237.88305144
10065821.69818825
5896885.717955255
4155831.879244038
10069184.97088873
12094285.55714732
2501613.734607016
2108809.998824075
17841307.95265407
10816510.40691957
5577658.93833624
4980535.962626725
3120699.744513321
2160071.549979424
6582759.50576658
10224937.84218284
36054365.73665823
10008553.8719232
5887618.270270221
4076938.975478903
3367247.775385229
8389361.237818906
10482563.64157995
2302760.275383557
2248057.500870088
18072756.12392159
11504459.30860311
5684064.908752181
4892295.422966164
3058867.685511629
2419852.384570119
1673778.054664114
5074976.903207222
9879012.447503194
37697009.59944677
9884878.875326198
6009839.299649497
4163624.62960171
3087733.90106662
2821889.960351664
7191850.887661275
9108219.862129539
2239882.920789044
2427639.278864741
18034307.6102376
12110920.13535632
5662580.334570477
4853207.133270956
2933963.035791815
2388516.665762569
1645522.503099172
1302575.916567289
3774973.374513683
9352850.920629324
37332016.58286555
10110302.46682165
6049867.771941501
4297402.911764598
3224557.648929158
2457671.178382402
2392951.799414597
6278193.24288491
7859543.583228609
2220238.048189544
2589563.690041735
17682626.83143422
12033067.83201845
5632395.939052498
4710234.352374861
2875688.33346462
2335555.577910602
1639536.873816424
1273674.652889186
1052803.403763624
2657096.595518508
8576095.867894934
36913040.67909871
10448172.60990823
6185769.761608751
4378910.821622856
3361748.548809907
2612887.206951642
2035882.097896744
2050378.429113407
5496387.801884724
6775656.557762754
2210305.441996374
2724550.777359073
17087346.54658201
11530791.71557759
5520560.735055599
4384520.438862728
2835810.321341006
2273094.187103445
1593232.071690575
1298485.898092114
967591.8740845105
859626.2741034294
1856432.583561534
7714089.155218384
38331606.41586853
10596222.64219825
6374617.492077626
4498376.893698202
3442552.981065332
2740310.317460321
2190452.329745662
1750742.115372008
1794079.167764472
4863389.919865358
5950373.343999258
2176921.075820132
2923202.092128295
18071278.84528892
9526793.200288383
5284962.21440599
4236945.675976286
2744157.861921511
2227872.820641233
1576038.522562478
1277308.758616323
988472.6132338814
792076.7329146106
724157.090075949
1375996.548109966
6791504.381143759
37752152.48643178
10785997.2877641
6432559.545440947
4628304.737826802
3531148.310758095
2806994.778945925
2302723.884066959
1878780.972951664
1538643.904271076
1583893.226680384
4312044.566416319
5326346.144074239
2114718.124469438
3018448.443766198
19348177.32111553
7430431.251289511
4632381.565580999
3968160.583939763
2670603.664142089
2166289.501023599
1565282.053560621
1274014.310390326
974311.7925932046
818995.4086591119
652884.883193993
608642.490954547
1070190.207740028
5917408.022984228
37397465.31872541
11028729.37481829
6563893.026631307
4681811.107614856
3618851.826861411
2880972.379622057
2359219.535619919
1969731.456578744
1638135.781542712
1370856.142060806
1417396.526396364
3833098.197125148
4871868.056508995
2070600.255154618
3133669.925271508
18642571.35768041
7328538.844895317
3940699.844466668
3600065.110441211
2550832.424060208
2134975.559612026
1536767.034603443
1264322.555258822
975603.5835647574
811145.1493698681
674016.3962017067
558465.5420389392
516984.3800520879
858364.3024738183
5115492.134791682
39422412.58506481
10831634.67077766
6738185.002520413
4787575.465497915
3668192.721450594
2948077.962062919
2420627.674989349
2020959.462053791
1717874.507653715
1445806.2130832
1234509.962942192
1282315.690391839
3400600.994202215
4518479.624775535
2077694.679244268
3226138.537389332
20760559.3753336
6098525.533864707
3971900.49594641
2837621.400595498
2385280.303431446
2056233.391318085
1512877.045994607
1256192.178803846
971506.9288780871
814473.6654060842
668821.9732329554
577604.7470629269
480198.8286037435
441995.4384182878
700224.645724782
4400141.166268992
40070358.2124277
11192733.12566026
6756939.140149422
4900158.75753543
3733123.156510429
2994319.876168706
2474713.328293542
2075067.384711174
1760467.416322426
1515041.921426249
1291440.368069115
1119035.426478102
1159993.219753628
2989591.337571476
4213149.239795727
2112379.202454913
3271805.138396872
22228468.260832
6414512.377368229
3755426.855724377
2856806.512971073
2148887.242495387
1932869.901227945
1487004.122561989
1240136.878459034
969955.765543913
814385.2810338843
673295.039538222
574310.5087672534
492972.9251729135
418549.8447202301
379968.1266414815
576778.9304721196
3748963.156002045
41295513.12378591
11945185.01395102
6903161.248233211
4939076.934491861
3819304.457503946
3041014.25725711
2514203.450251306
2119412.127280814
1806425.212101363
1551108.706485545
1350034.329104808
1163815.870042552
1020735.496454236
1049451.900555854
2605889.094328808
3922982.213440956
2156104.517486973
3223707.479650959
22589367.20469754
7592447.390119978
4092103.938203482
2822993.163874428
2145106.834949804
1823227.83411188
1445492.024760631
1230661.765244695
967006.4315848566
816394.1434974361
674533.3633130133
578480.1773256616
491380.8069892565
427880.5115635535
362980.9255069454
326662.5757874314
475640.1922516471
3157571.511810179
42521580.2681675
11805476.22101838
7207828.083038511
5075415.873275059
3864772.464857006
3112656.076264199
2550462.897630249
2153210.763634225
1841225.532238009
1589291.788729111
1380860.684733321
1213957.288597499
1056634.449121619
938299.1677573367
948232.1571903983
2241499.885895541
3627168.525897804
2150680.884753741
3113248.257440437
21864518.384349
7729400.288665564
4534980.764663798
3126324.056910956
2238588.542031312
1758911.393469628
1414423.53562937
1216151.994648732
969624.4240415506
819553.6292853103
677329.1337446506
581161.5710814896
495066.1525237851
427321.1290132335
368306.0464398142
315475.4650475486
279671.4551127275
391016.2798548341
2627727.586702676
43499301.22741432
12150170.55683469
7161100.732319515
5244160.399476481
3949490.865420504
3155223.961583033
2599839.718201938
2182867.804661736
1868131.475549631
1620314.130110148
1411604.371383778
1240722.905803517
1100180.865496311
966658.1220511016
870150.7072144297
857997.0709251806
1903551.455062344
3323356.915629222
2097273.094652097
3005135.259777606
20962865.37920213
7576482.380993634
4583566.887533878
3411199.459508833
2484423.817901873
1879308.817399836
1457724.873028564
1208846.003255597
973126.4516570625
825893.9162743749
681733.8579855445
585549.2908865673
497787.3434151732
430461.4187427213
368427.7952687751
318345.9841184582
272026.956646422
238502.4141366547
319944.6648606418
2201173.991554806
45517828.73837469
11892721.10061605
7222170.42615963
5183980.027699016
4065707.084113657
3211238.14329948
2636615.692970223
2221687.256290924
1894553.502814963
1641517.501348516
1436771.279053178
1267097.890047069
1122933.926760088
1005559.843007411
891150.1441332885
813190.7118423105
783100.7428352535
1584870.486853307
3037198.117444722
2030475.441084144
2849427.426857736
23321042.55859057
6997382.811426697
4480605.615497388
3407369.282615263
2669698.163727351
2083808.865509944
1588107.141128537
1264351.292912505
998179.4684491133
837453.6322444564
689156.4409341395
591164.4072107332
501354.1100483403
433052.2634502088
370542.1964064605
318481.2317440413
272728.8355724296
233950.1342941585
203484.041374398
261041.3346898478
1786566.137659873
46570696.67180656
12241729.13473289
7168470.75683839
5182253.471352316
4011790.511673945
3297071.749926344
2685540.409972688
2252094.871277773
1924443.168593747
1663671.114782324
1454559.513133313
1287068.498955834
1144763.225579837
1025302.869384455
925901.7987523589
829415.2289519231
766912.4161419183
721226.5811574276
1302981.58840469
2733578.640506962
1967125.048129264
2650535.190466548
22769879.54880716
5281888.986154401
4218497.589534145
3302603.558309122
2624770.225470783
2238716.13439832
1733041.056097604
1376729.989585636
1066339.419925933
870334.9844478997
701163.6623051621
598131.0854585035
506329.2071340433
436191.5796715013
372506.7703099317
320079.042205444
273057.6044923521
233363.6425845271
199957.488907561
174021.0286478913
212997.6163481206
1414387.795171874
46686304.31490681
12946143.42596682
7455815.009609902
5185817.884731675
3981876.81349965
3253113.641879533
2735305.067206138
2287509.95101056
1948150.425455096
1686700.392287455
1471722.21793589
1301661.017939332
1160929.237275331
1043886.437367015
942481.3556861879
861286.2071073801
779116.1276528277
727843.669253824
675540.3793720513
1067200.418589815
2423680.205863143
1879738.257033884
2420205.318957584
25417982.07053561
7068063.147916785
3767587.093135572
3125125.534457108
2558824.447644002
2176843.788587594
1805615.681963435
1495986.515666798
1174267.643860174
933248.8017686458
734327.5721808575
610571.8952266565
512689.8545089692
440349.8134490657
374825.7051240176
321473.7091350513
273868.2417378161
233630.8795691768
198636.9144279365
170344.351728632
149087.5809474167
174045.465981961
1093953.270499232
47982379.65922152
14032576.00145706
8020961.595706236
5433024.644528735
4036590.333822172
3215244.43217427
2693279.314707163
2317580.442719602
1973353.429000492
1705779.232079455
1489166.220574514
1315951.334435491
1173092.451659964
1057165.063922243
958120.8594973634
875803.7851950793
808002.2840322737
738708.8077044061
697665.8604935067
641471.2886185409
900805.7586972992
2129909.843385199
1781513.062369254
2171184.480429443
22495583.79955145
5432869.19553611
4338262.691868735
2970849.518097874
2441423.347535836
2107597.628313622
1777494.703944433
1550725.860538014
1257376.799826311
1023189.162395951
792939.6098158739
640164.4105453764
523679.9262096843
445911.3635452175
377568.7831996197
323183.4178115661
274733.2120547228
234012.2622868757
198795.1272069836
168929.1077181156
144875.6047475426
127532.0351677612
142810.4392174486
827794.8566845161
50469292.19233397
14416717.144762
8709546.615970662
5896556.614302082
4254761.054395719
3282649.621664538
2661626.218526693
2282472.787240032
1988055.672357502
1722675.865962587
1504224.956240358
1329231.931389156
1184457.919269894
1067175.572470207
969593.8272607655
889343.9053993964
820914.996531427
766034.5099267093
705040.1748806828
670888.9003422618
610458.0953004576
788298.4392537405
1866552.093226297
1671932.663377978
1920757.372379167
23481581.50022684
7761613.298148975
3929294.653900289
3261584.464218161
2400924.132893599
2022721.053926867
1729069.475573417
1532278.367505001
1282798.28249331
1093116.383438339
865921.0996947871
689552.7214528115
548085.0259180893
454956.3003541275
381993.2860440153
325121.1198432875
275703.876003482
234440.2400457188
198797.3110273702
168860.3682854481
143516.5052625036
122814.9964543068
108382.0970269246
117470.3723454064
613224.6111383211
56009654.26127515
14647663.46187955
8881176.317442765
6397974.645224776
4644701.761066588
3480638.854223276
2746606.023193309
2263817.014639259
1959432.676004834
1732259.900824236
1516137.255042908
1340150.362375946
1194864.651562876
1076182.630048928
978094.4066571468
899401.4385832375
833303.1201993248
778125.4195544029
730677.9107368777
678430.9299754276
637146.859933371
576889.1133555998
697342.6885233405
1630144.372915507
1553621.11095291
1673708.043514114
22838851.21095131
8048181.809141972
4663568.63875412
3129177.600342824
2556583.114673113
2028239.169057983
1699572.61375167
1488048.070364234
1265189.800251813
1115153.338223692
912760.4430268863
749860.003122954
586464.5185120839
474251.2548683215
388747.5334012101
328280.7540458686
277035.3790463965
234956.0164051683
198853.2623579783
168591.0682845419
143240.3819923018
121477.6548273892
103310.3306823574
91123.81552075266
96475.11409425265
444646.5304602575
63264589.00610832
15585501.86295247
9032358.653922763
6499505.955328457
5031601.39311265
3823371.482378953
2938402.207850696
2358968.948669924
1954990.340846154
1710942.555306562
1520149.28116083
1348620.70790929
1202592.696609257
1084150.139502631
985401.7735822783
906876.3761955856
842481.4062841112
789982.9778280377
741331.3974175351
704212.2622166293
639259.6951166234
599674.2089949504
531346.5600971504
615436.7918782015
1422629.791652397
1424769.931339701
1434851.574646621
22318573.05575458
7967455.844595635
4788502.722845145
3498436.358543854
2541567.256130613
2131828.297978849
1726531.310862293
1470133.6980314
1248733.248110694
1100433.280935642
926606.855761687
790316.5117216855
629842.0162865337
504936.8783678818
403030.8578204628
333494.8028693644
279024.4866083919
235857.9380704385
199011.3000983313
168405.5183270092
142881.9405658634
121056.3678338056
101885.4954992499
85878.44652013674
75765.78965980839
79191.94018788061
318555.1368865294
65610236.83602356
18274256.45745065
9839126.605168544
6645427.880438936
5107772.687133662
4127852.372225385
3240981.912668882
2535239.519800014
2059793.784431824
1719901.260298426
1506720.360480162
1353142.103578974
1207810.112858764
1090526.016875142
991730.4336551733
913228.7110342953
849738.0067504233
798791.9172349772
751655.1241413913
715386.3307521177
661877.140699814
601737.9209550015
532914.0458770921
471481.9767529743
534577.4784045969
1238614.943061864
1303653.653432476
1216451.533508523
22281511.72988945
7755093.857674073
4762298.008206676
3561150.196293472
2729135.099941668
2153074.467894085
1786731.705897416
1503760.394799174
1254757.813026503
1089415.130785812
921275.4717198834
805306.0152385239
658854.6811777852
541116.3584272075
425164.2624586854
344358.5523862232
282850.0659395862
237164.1445382792
199465.2174751918
168286.3650571637
142546.6692511553
120612.7431826558
101295.7980447333
84363.35706952997
70716.98619709117
62694.811363059
65191.3052766086
234579.4029662183
42700044.45181417
22856336.27997316
11759955.70243196
7415123.70648819
5244272.397749724
4178607.818156585
3488930.902720891
2805940.081246
2226241.953504963
1827562.808996961
1526550.392191812
1347178.539584628
1211433.201224159
1095105.287384059
997221.1834318755
918686.9629630025
855710.6603924996
806358.509297393
759038.4558624841
726294.4938421923
671319.2462960787
621655.8136456744
520556.1873443963
448249.1551650789
399221.8484625012
449623.1378670706
1080249.954599664
1186274.085727451
1018357.880797495
22301590.21049961
7725994.431057166
4703471.201580385
3539917.012383965
2752483.93046169
2261025.606301253
1808878.830651316
1547326.56287424
1276932.960082512
1097743.326627095
924597.1154662039
802281.7878709334
670030.5959734474
567783.3455464746
450561.4122370039
361783.7803023755
290138.7175254111
239834.714002697
200250.9653576147
168420.904743192
142257.6982898857
120173.8116804041
100711.0096721142
83577.10577526163
69167.55775151747
58173.53410204851
51982.07033347603
54198.60700144927
184450.9855250663
27162760.75266673
20904437.01489548
14905041.82243802
9088297.405675627
6004078.651890511
4320648.019774497
3530100.74156012
3012476.9733201
2466815.87011987
1983655.50860878
1638224.563346532
1379207.380900297
1214452.321869618
1102399.50138988
1001900.05233961
923795.1932699875
861165.5798828666
812684.8173578187
765134.0957846747
734208.7009890955
680563.2783539866
630958.3021975704
532842.4371882965
427437.5169449803
354373.8360915778
313917.7094841879
357648.8562218829
925752.0063300603
1053456.3585922
925003.5730772541
22317395.70030015
7739442.281717971
4741567.877663819
3508001.887317016
2724043.591753671
2280539.53104912
1864523.60740172
1566579.510235141
1299967.962855403
1115740.982132278
934505.7523530407
807613.5892762627
673318.9922501061
578949.6540449479
471658.4167753289
383709.6311007878
302307.814706841
244978.5365160189
201932.4573677231
168831.0866436332
142128.4451882507
119769.1907929791
100143.8541236493
82907.4509510814
68262.75735700385
56650.39249205594
48052.88449706692
43528.61200675958
45820.6018613229
119487.3679119825
25727103.57745546
18991630.62700057
13788845.85905671
12033077.28038272
7553604.757072657
5056504.099546407
3702655.635589663
3059402.516470845
2640317.890301823
2201369.412418037
1791843.468510394
1492668.883919085
1257271.097035349
1113143.173311591
1011368.496819577
929793.14139954
866574.1154823139
818927.3161676659
770196.1085606994
740837.4989289169
687265.2592088038
639632.6345775479
539296.1480720736
432294.591702198
324176.9150776996
249573.1102850599
222642.1334586904
265032.3085814955
775855.9810491197
974070.5516755502
955990.9986580104
363004.751829589
22238115.18104786
7751189.642840001
4722677.105668175
3534620.824229777
2710379.370984116
2256120.540181979
1871229.26641938
1604054.806252277
1318655.905942991
1130944.782500032
948264.7078676095
814696.025762426
680732.6413026379
583043.3523373686
481568.8391647667
402689.6581309374
317219.3674797266
254337.4594056978
204949.2070077908
169718.8883657437
142305.8504481479
119410.5889421001
99590.51907581683
82247.0441693437
67581.84604302987
55723.52551493952
46595.7877296122
40341.38717899043
37552.75502313428
38693.24661450992
65605.5586638524
26266270.23794157
11350790.35393019
8249074.473321097
13394674.95293507
10259938.29664089
6536535.85695713
4447454.791876323
3258271.052205166
2690372.763738792
2352803.665102326
1987540.187909321
1638962.920977768
1373056.094045628
1166359.169581994
1028623.17384363
943986.7075327586
870933.5614305476
826023.0261479007
775255.7843097874
746295.9002347116
692841.2629575606
645423.1092233354
545229.3283339398
435170.0366370138
321589.2015976664
212960.3641753695
155448.8673260149
141683.6524911803
181246.6909295144
605840.9590003926
902934.8429178548
929479.5633125697
265143.1724981819
23089436.50295075
7717738.986973417
4685904.025958404
3517374.881862528
2729044.523395718
2241534.397064221
1860191.40787301
1607653.823882445
1335910.752682344
1145404.716053859
958402.707409955
825236.6021025466
688911.3032418032
588375.2353033329
486749.489510439
411701.317926869
332406.8506056863
266908.2737451462
211046.3229414427
171272.8679769002
142573.5038188602
119252.7641712669
99058.83189037428
81590.16514314388
66918.75375805672
55075.16955980991
45698.4901079874
39060.57688336437
34775.54060807295
32474.14796494477
33818.93285558871
45927.31283216154
25875725.79006789
9572388.792058403
5926649.985815156
6193097.047628518
10448260.44060533
9344720.720250722
5914344.455393878
3985701.120161389
2925194.025349373
2412725.059573428
2120568.008967888
1814194.795024842
1517264.644754222
1282017.446567639
1089899.017106189
967590.9364048409
883252.7092014499
834398.6404348055
780601.1916510203
751989.8208423138
697404.7709185899
649425.0982788625
548575.1759296514
438177.6696612977
321097.4010442672
205846.3294351173
124783.555308481
89746.80574548116
82877.26060421791
120959.8836584509
700314.2480712914
229567.4997264591
884946.4509518759
895188.7912861238
629048.9005376601
99683.78996160273
291868.4536714127
23093262.21001014
7809833.439647089
4665412.770125644
3488833.817962127
2711568.152245034
2258181.065771552
1852804.626425697
1597627.745980552
1335931.070939395
1157444.724569574
968773.0310090786
832125.8149585251
696283.3696743663
594365.215891292
492663.7862503424
415626.8889071356
339873.5371231465
279830.8832938579
219235.2967069993
175421.7261995942
142795.4244349005
118923.3792895258
98563.10063321487
80958.56699745213
66261.46239538339
54455.6454910643
45098.74542685749
38264.13238960791
33441.44303713166
29274.03237656215
28071.97259519792
28834.18138934343
30924.55560893269
26469145.77941492
9093852.158550089
5571761.615574308
4487261.724006619
3869053.764431571
10162252.02650302
8831200.673280442
5460290.237924507
3682175.129819396
2676275.107353455
2193391.148281101
1937421.31767539
1675941.640240055
1420167.238782341
1207536.718572387
1036898.27567566
915728.0362023721
845780.2148043468
787532.6265679932
758053.4472889921
702017.7723045049
651849.4837152597
550171.2803463266
439400.5910036218
321534.9995118055
203280.3315124918
118566.0018276621
70426.38592363922
55482.75397300051
66484.95227812151
93586.29959180954
60384.39014244515
519386.7964708003
140973.8689679237
770383.5835098741
844058.9294205549
561343.7289621247
80675.17281684381
155740.566537702
22072023.01382017
7793793.128679125
4682912.043811635
3483480.260653532
2714490.104812871
2240013.32208463
1862802.643536627
1592179.57093327
1332317.947046871
1156433.451873743
971082.5885394663
839567.155045919
700878.5066377602
599455.8605086992
497485.2492840244
419671.4004192629
343700.3380201984
285847.5139113101
229159.1013844446
181470.0317551357
144748.9073393847
118143.6068683088
97757.89694277428
80268.55496464737
65597.40744714391
53839.40424047509
44543.98321626085
37742.23837798236
32558.82811261539
28045.58208242765
27372.99765242928
26251.5668353803
25059.78755775573
26434.46944191089
26637.40308736356
26560030.78392607
9004167.892055782
5412060.500450477
4252449.048654346
3351800.376222022
2944457.558035923
8342715.188139969
8400517.650385436
5144147.850881428
3432134.6228122
2487498.672510955
2027414.76413895
1791575.829377967
1566178.808193215
1344540.650092897
1153426.001373091
990448.6663660451
881714.4951211457
805671.126270346
767115.4114167802
706788.994518315
653616.4354274228
550127.6144377355
439154.669597714
320934.6828976167
202419.5431373253
115900.5387209021
66791.9790896513
45302.90038172592
43019.05433917601
49502.48680018917
58889.67270326549
54230.13306686754
598056.3608159084
210767.2141225819
83417.04610988026
759020.4356547312
685539.0684560576
798898.664729262
252454.1964825348
44980.87321117839
96300.25665818014
25130823.53081178
7141559.251111072
4595517.104724646
3498533.97303619
2701460.128423552
2242201.014344634
1856186.660153656
1600867.920123895
1331550.880515284
1152926.926033833
972138.5396111339
840059.3463071088
704802.1322080435
602528.8118865202
500558.5743588093
422999.0250759292
347251.890372078
288552.0385158855
234101.0525382846
189388.454554994
147811.0143978079
118447.4642066526
96148.64831726685
79173.9636058812
64821.90846694519
53177.79309590066
43983.77196852591
37263.3945979877
31927.57241708155
27023.51857792931
25494.30988643437
23391.08917998493
23286.46344801917
22634.44019710192
23228.05921597025
23124.08298493929
27155307.74122331
9016326.23757291
5351287.47976717
4086523.710373672
3282180.820398018
2872212.064721577
2167003.255940425
6637204.77491157
8227079.782943707
4807602.71175253
3262931.795764084
2339442.850489761
1894995.449599079
1680083.45848695
1481853.272473846
1285364.621940663
1110243.476067316
958050.8101058849
845369.5957750387
785883.241004761
713116.4556092097
654462.4829775313
549056.7762687068
437517.024361434
319329.687628164
201160.4707836911
115019.81823952
64965.86207679813
44397.15295707605
40048.44306105876
41423.16338241318
39229.1755060123
47905.00708856342
51433.81454258947
54040.77053822546
321062.6663124409
122702.1787671666
70483.206996498
707119.8768858322
614288.2746325299
757320.8703189859
144417.1042872578
46168.95101134723
72222.39144606976
21881359.94300282
5291508.894377485
4308348.243584439
3413159.008241225
2697754.940650432
2226369.331843411
1849845.699060115
1596409.113980557
1337136.206546835
1153512.178858119
970261.1918114538
841961.2671298387
704440.5266276919
605153.1379607078
502816.9508882667
425269.0884581362
349749.358236372
290988.564818151
236556.5863534285
193283.775210404
153424.8480155557
119827.8256053705
95130.02124396978
77019.10253568583
63564.41933884195
52365.97887550502
43365.10763459843
36759.90336740275
31301.7626332518
26540.55277188544
24551.32434921984
23235.0294035577
22477.23378302595
22375.52227053472
22279.35686146015
21513.95726671146
22590.72041541967
21413.91067889152
23352.60184700672
27589706.2205837
8730507.953018334
5310646.511486608
4009118.75667106
3212923.284186947
2794191.27019712
2263867.847019041
1773004.928034793
5242245.595310561
7508629.872645475
4528697.991066618
3052922.629072259
2217502.320283158
1795956.688510642
1583518.451119259
1417830.294419597
1237922.268742708
1076322.953598532
919338.7465132202
819528.5423224171
726287.3348791238
653658.6923435171
546456.2479187113
434744.4627975303
316579.1507936165
199445.716236021
114250.2293133143
64306.47903485716
43873.73039397231
39769.68956760653
38198.32863973847
38230.38556661262
37772.70118627881
44780.1134573394
46267.86329508558
47840.76842924188
269501.1764799945
89704.40404584851
51784.24624835722
437947.1429931427
722262.9892695867
681558.6270744725
271635.7313495373
79033.85570044912
36681.35104286115
20666883.42546871
7372441.4018802
3796976.518593142
3206812.878600123
2639374.549202966
2213792.298120926
1837383.459705568
1585816.445520578
1334153.234416022
1157158.779472892
972908.5694096731
839196.8348004873
705971.5490060135
605464.1668140134
504988.4298179331
427157.6315959076
351589.9241715879
292865.1894624954
238519.013224177
195139.186255863
156578.9163844548
123824.4204262575
95152.12332458483
75260.22346365615
61162.69038316874
51045.84979881323
42559.96955456914
36142.50210856269
30651.59418723923
25547.8189012459
25039.4690209055
24358.66306023557
22347.0778827732
21960.978909475
21212.4841821074
21042.92634424381
21259.27754378889
20901.62123294667
21259.53683401455
20313.66672671847
21397.28479488895
27454842.47754478
8233117.730354815
5166371.92921337
3933207.559138864
3137866.153379999
2725301.002195357
2226314.319835024
1957991.880157586
1438769.681816415
3588678.883498164
6742290.780067267
4069513.039828659
2892371.439062787
2098647.966018515
1694406.235275217
1518002.05702381
1345785.331711147
1196996.42614496
1020317.916452853
879828.444825049
748175.9041432845
650280.9722623323
541149.9889891387
430234.1013064446
312766.8879608278
197098.3168463041
113317.2572933171
63830.85695424749
43665.16499968203
39471.49846625022
38427.51030753041
38447.22038411501
36857.1127256058
36610.62464029671
36843.11319995652
38926.0901143309
43088.41409460003
45047.89821233645
125038.9850069762
72639.75426078447
43146.2302926535
334104.5168748763
692105.2142934263
640427.6694822412
166443.0439323527
64388.99501165818
34161.74449103356
21295850.50714681
7322234.611513542
4515607.384444439
3010887.997656853
2500295.248938613
2160841.686487575
1814503.970168527
1572313.021547483
1327253.581453834
1153339.303540934
974371.2985908061
841610.1162173188
706216.3305132301
606702.8996564716
505679.3021377845
429224.784181766
353105.2714377248
294416.0332629682
240013.0816097318
196801.6116026166
158039.7891554847
126164.459321038
97785.41846713373
74482.24601392058
59024.91648171397
48667.23602078042
41269.30667124638
35297.11963427669
29919.78477928309
25369.33582977425
23619.30054403824
22568.94094095849
22447.54208149352
21489.6505285715
21141.80295227312
20714.90343922848
20471.18986614881
20641.3727555218
20515.21053854728
19950.35684011874
20940.95986854531
19894.49383810541
23320.6227162572
27863644.92928065
8206692.515570416
5036894.742298873
3818452.480664132
3055667.154611173
2629960.782126403
2180749.303418571
1929824.160152044
1610522.304705186
1223468.029751283
2259136.891062614
5459611.324276158
3623411.290384542
2613291.427340796
1980733.096123966
1603512.613702344
1411316.818156719
1282606.935891022
1112673.387671656
949003.714163688
785580.1069044148
644591.2443490281
530150.1499391276
422750.2822424195
307114.6862672346
194113.8586272404
112116.2070093343
63366.24370159272
43477.37386339979
39661.01757304977
38399.6587132796
36843.32801844536
37097.58648119208
35819.16838731874
35613.85016562099
35724.07919912857
36742.88102388526
38641.4412618865
39770.48359114797
138124.4807096753
61629.69400788119
38179.08132111237
43492.0421539743
366266.4426036283
536517.618167737
658745.3402903426
328320.219731636
83741.76745872041
60088.03598559758
46161.86454414013
21119138.30361993
7478077.948823054
4478285.015620347
3376160.248756026
2432115.621494055
2063677.524797078
1769038.941119626
1547877.264392282
1313219.187729059
1146040.891313066
969193.8182317293
842554.9792133853
706711.6822182041
606744.0531389883
507250.9897885499
430123.5301752788
354533.7639574679
295745.740089699
241354.8384505591
198145.4495367738
159411.0008977741
127128.6921989652
99305.24989277925
76033.28247143439
57718.49398661681
46332.36652112308
39022.06320865968
33980.00585826415
29016.13214602964
24043.06951438168
23009.12664067056
21825.7439958447
20896.62555491306
20538.08606143938
20309.07925338274
20076.48709448474
19941.05815410748
20072.58139203019
19898.29145906302
18377.04971967803