/*--------------------------------*- C++ -*----------------------------------*\
| =========                 |                                                 |
| \\      /  F ield         | OpenFOAM: The Open Source CFD Toolbox           |
|  \\    /   O peration     | Version:  v1912                                 |
|   \\  /    A nd           | Website:  www.openfoam.com                      |
|    \\/     M anipulation  |                                                 |
\*---------------------------------------------------------------------------*/
FoamFile
{
    version     2.0;
    format      ascii;
    class       volScalarField;
    location    "3000";
    object      p;
}
// * * * * * * * * * * * * * * * * * * * * * * * * * * * * * * * * * * * * * //

dimensions      [1 -1 -2 0 0 0 0];


internalField   nonuniform List<scalar> 
18230
(
28844.79365002052
19008.47256088654
30618.52301342993
28845.7640873286
5458.26171203132
19157.1309504286
24463.78245041914
30582.95404777176
28840.24102819991
17201.6058627202
5734.932120184343
19189.04027761351
14299.65532109126
24702.24344294488
30590.26216660556
28835.4433770932
21878.34099878099
17365.22791623326
5941.902960719896
19208.41750501478
10120.93191260436
14514.73429394448
24558.40277861188
30581.42803458492
28844.70860741845
22552.19211150091
21969.07340317413
17320.3859593703
6170.4260530825
19312.67820957868
27399.48412117624
10395.49693321971
14613.53602414537
24659.3084351394
30566.03904582958
28838.05491598634
23047.64813438641
22559.5768366887
21889.18180829917
17481.97609798123
6383.604038180962
19481.62291905657
37724.19729297363
27407.42087095598
10607.81120212366
14754.82094583409
24667.41737926021
30557.70267174334
28840.80752970868
23703.13571042752
23116.7829126984
22562.80300448069
21943.51807750476
17580.98964847585
6634.95344714471
19623.82534104629
39865.48879217791
37738.52074476661
27527.22506554553
10809.22242335201
14890.74923380057
24759.8783982522
30557.40543756983
28845.83466080905
24454.54333401427
23782.54937029928
23048.25829014459
22591.47921553729
21954.53376277346
17730.24909652219
6905.26272034064
19822.75474120216
41311.1924161742
39855.49799438546
37736.52581763442
27693.12363715523
11078.07811184744
15085.94784469373
24798.92007945185
30526.77400981365
28898.00271770835
25304.16451430192
24530.16476979872
23703.36180339915
23118.88542498935
22570.25942580444
21988.91928945702
17899.74658054501
7213.030006768357
20025.82547622097
42112.1703934945
41312.12324855865
39872.83111598117
37765.59464006055
27734.11897220858
11378.76021092983
15296.09084661231
24853.27088735993
30513.56117125148
28920.11397325626
26327.04369952137
25406.69115318978
24460.25586979915
23765.31784716741
23066.89323581877
22598.71545293602
21998.32925151629
18094.63314064378
7586.616643064238
20244.04551523562
42620.66358799573
42108.99657324548
41310.19397464114
39865.40237770276
37753.08742245445
27926.56802226204
11725.71365556043
15520.93761640446
24889.00450491918
30482.68777143583
28943.62110007048
27454.07386933667
26434.28947873343
25301.00033752235
24507.62971034068
23726.74357344608
23110.64916915678
22598.63120095917
22041.05238882078
18301.91896168102
8033.447838121039
20505.87916122094
42877.72805278528
42618.74112409411
42110.78736625483
41310.52949543366
39875.48314829818
37762.33157023527
27988.53794441327
12142.7645491589
15758.05995815006
24933.89995424551
30470.72734610651
28963.78670073376
29353.80898040712
27579.25313014175
26320.65265031645
25368.59860352296
24479.23798830005
23766.12395744148
23094.94420276528
22615.05182900475
22061.46138232832
18551.31473083641
8524.587463418848
20727.53044022625
42907.74161720161
42873.72744919922
42618.5782417982
42109.66156897754
41311.14581165411
39881.79752114385
37794.46765618973
28155.16075222882
12600.31440690058
16046.44577061789
25064.20371655047
30444.27771473957
28984.62136082337
33945.61037931372
29468.31365486563
27438.80576945834
26389.20610085732
25326.47133933747
24520.43224829187
23757.70049113943
23121.09878992961
22634.08143218714
22111.24785318205
18833.40937497063
9065.995024797254
21080.37655658383
42861.00960198004
42903.95693570549
42876.51148852211
42618.38237732787
42112.27268809691
41311.47147743127
39883.12275006213
37818.4455764344
28373.25065573488
13112.07815834038
16296.03340695245
25211.77852945411
30476.12784589284
29054.91458778064
40688.10301040753
34000.02048291037
29362.34733708559
27517.03598050546
26344.2664345147
25369.85818226265
24502.39198307675
23782.27592665842
23131.78870697043
22653.00534913774
22143.99324385548
19158.92767094817
9667.902366716758
21489.62471379152
42706.51643984408
42860.026909403
42906.92503171552
42874.9993583398
42616.93451844223
42109.48756976998
41314.12300008095
39892.71908529622
37826.33859573368
28571.15081137415
13699.50320936127
16481.01242826114
25409.8883615882
30517.58191810662
29177.64258793636
50124.52930747382
40750.91511787511
33924.60558161522
29444.15187562753
27469.89047845222
26390.2105879498
25357.42113184515
24539.19678979674
23796.32851458927
23154.76328431879
22682.75196684499
22200.9186838522
19482.22221433617
10319.82109964161
21915.76972770798
42345.20260990218
42707.44536972624
42860.28533105601
42906.29158137778
42874.65667470044
42615.70687552775
42108.57093152277
41310.19664164698
39897.95041562282
37866.37790525597
28794.04378954785
14363.5197047689
16742.55930279577
25663.75056104511
30589.62796184327
29383.92503209747
55490.80142346273
50148.05948464842
40699.44241509403
33971.93685405302
29365.6308556903
27525.74925926253
26370.30892360614
25391.46790481831
24542.14646308718
23820.64501701839
23180.31299228783
22707.6387158556
22243.45007578906
19843.7932445427
11034.16890668129
22359.73320774357
41537.22517665014
42347.33501994587
42705.29029538943
42858.93443086925
42906.00328646325
42873.66165946274
42615.92110365369
42109.59521562947
41315.57641422983
39907.36429371895
37898.35239296388
29085.87664313271
15092.98957251225
17117.66230022424
26024.11006898407
30710.66789230278
29692.10232590489
57928.46813519626
55504.84520663253
50119.92454546291
40692.65824809706
33995.65801577048
29442.00411801623
27489.54871420748
26405.52383941588
25392.7196527964
24575.4951237635
23849.59646016927
23213.00988972263
22754.24982380453
22314.96696681252
20187.90102713018
11788.01323175791
22810.40436187156
40309.1600704692
41553.58863357801
42343.24413393051
42706.22385111822
42859.23060405878
42905.56417560047
42872.34683376731
42613.77434734186
42107.74519638128
41317.05480000236
39917.64892610056
37937.92555282838
29364.00084484695
15877.91210195771
17467.48995874696
26509.16511723139
30884.39191370125
30130.19771699189
59706.14735717514
57920.58784983095
55490.53725802408
50140.07030087063
40720.6873384155
33987.65881523826
29400.81154493003
27537.87758771825
26401.02067649959
25427.25682565226
24595.8902138241
23883.8102708291
23250.14849832942
22785.56265776504
22366.06066305194
20539.52249805716
12589.98250845668
23231.7236738541
41151.85095819743
40309.4099232015
41529.28828634416
42345.17212714372
42704.1794613724
42858.14238140599
42905.17207827775
42871.48538466498
42613.98825677438
42107.9105578003
41318.96482035065
39934.87115166627
37989.62518145599
29739.01920368859
16722.01926528461
17797.10827825182
27168.91706231015
31040.16790627487
30693.82282826353
61377.96326163311
59705.92789633357
57929.44393188558
55490.02659549793
50132.40536405598
40698.91640318499
33988.96281028611
29463.52023505011
27521.6260742994
26435.41588692831
25444.42575053807
24633.60175446153
23925.00280885389
23296.32881955801
22852.41469706897
22453.22891098065
20875.77958630987
13412.97106539498
23673.4537336565
42630.52172316603
41189.22713186262
40309.80971743035
41533.61680684571
42346.7061015595
42705.05714522573
42857.17865946022
42902.79476170588
42868.86979902542
42611.38080931943
42109.11125357774
41322.9337900171
39949.47644306131
38043.81349451347
30083.17457238281
17658.98648250781
18100.12281192694
28061.89951335717
31363.55209613725
31401.10750040887
62886.16766126997
61378.27947738365
59705.62069055672
57927.34395162515
55481.85878433048
50142.83200445091
40772.59018894543
34014.00845126978
29432.69611569247
27565.72637995356
26444.39854250369
25486.60284208482
24672.85804359569
23975.08969845696
23351.4981087199
22896.12654305132
22524.12985672479
21199.42013617689
14253.40424777352
24136.71935892973
44135.19690816027
42638.70792184561
41145.24627221569
40309.67985974086
41541.09008587956
42343.1618857202
42704.41300289721
42856.45022628849
42904.89417960032
42868.4356412004
42610.43118720224
42109.59425040895
41328.98779608261
39976.11672814528
38108.75074124634
30496.60767672043
18661.19511541542
18391.54525540351
29179.06425432544
31797.58751355646
32326.53168702678
64292.59074279419
62883.04626513279
61376.71837191114
59709.63833797457
57931.49325162767
55496.19178918191
50134.12317033074
40732.56231247079
34043.7778750935
29499.87092330459
27567.95389154488
26484.59497354044
25519.51686435422
24723.05957764753
24035.34419914563
23417.26348403251
22967.37506689279
22620.79133363743
21506.30297791499
15081.59136482884
24678.99368358524
43056.64682691755
44095.25151164029
42629.60375819132
41172.71250729793
40310.24487908195
41535.24764101027
42352.19475379962
42705.49566302075
42855.2884496527
42903.52584002692
42867.01387660477
42609.50126692669
42110.79905467285
41337.59005736654
40001.18880553381
38190.11183792834
30910.58763362212
19789.28695585393
18638.35892702406
30526.8698422122
32383.9230334059
33444.15955421464
65660.04451661248
64290.99592881825
62885.22155918186
61372.89872391372
59701.92143199209
57923.20713189922
55490.24617389846
50156.98456790903
40771.41912820731
34045.99793166979
29488.86408613029
27611.92490673555
26505.67375137023
25574.89111453321
24780.61867497419
24103.14791435654
23499.49805644632
23049.16298097736
22717.38923475767
21793.24144181631
15887.07698065824
25403.81677087601
41294.4040781096
43055.00263093425
44110.1534652812
42629.73858394154
41145.13720046948
40309.88180091065
41531.70613985755
42339.19407907051
42701.64390313353
42854.2385449727
42902.43367966326
42864.45093163219
42607.64071413565
42113.51121348524
41347.7120540371
40040.69949074169
38278.04443932564
31428.79816711512
20984.16345287358
18860.48776650384
31897.06505797312
33109.39363733792
34699.76242529136
66846.38665958525
65643.78287272398
64290.12648899176
62885.07683083814
61376.85560889878
59708.04454550574
57922.70559978783
55489.71957331459
50134.37139610496
40785.38605902914
34082.6296267905
29558.379037934
27632.554711784
26558.11943613377
25624.70878184861
24849.81062423076
24187.57775747082
23598.71202768167
23147.0152759431
22828.3419883298
22062.22781013298
16645.58208310724
26282.61341861459
39884.81852441119
41305.58307352431
43053.20809098864
44097.01915345496
42636.05485936332
41172.24097018962
40310.91780483136
41536.44877970548
42358.22090149439
42702.13296858238
42852.59808277101
42901.24236347211
42863.21014068828
42607.36895022625
42116.30914428298
41364.21291060191
40081.54881804045
38390.69062636611
31897.27390061922
22172.74299581902
19130.32918891455
33478.06339980051
34012.3983181427
36074.60719715633
68052.90499179991
66838.12486895516
65660.3316885606
64289.53191803872
62887.45140753879
61375.92021452206
59704.29435819086
57926.1406268357
55490.7158665981
50169.19844018308
40804.28280893666
34113.54799792215
29563.23599759716
27687.0201956951
26593.96388555914
25694.75892450582
24931.01706240046
24287.4121538407
23718.89489212471
23267.84938423727
22949.38682041772
22311.75050714246
17369.62276308996
27205.5883145792
42039.69532050156
39885.85346125152
41288.03746205429
43029.99914278542
44098.96061726294
42631.9018525776
41153.43305605746
40310.88517593408
41530.17484096551
42337.59901467369
42700.61494091075
42851.20927575538
42899.40896554855
42860.04092806319
42605.75914583413
42123.60361663077
41380.72924960799
40141.64019260117
38516.51678390193
32495.91814294356
23286.61989565243
19501.36999083797
35205.41283396997
35093.2170476383
37644.68660507037
69124.99462945179
68046.32465996993
66849.9057395225
65659.59346365479
64290.99474189467
62884.13461722824
61377.87345021883
59704.01411001778
57928.53521508986
55486.66975101635
50163.16593459804
40830.22578146022
34154.39783525552
29647.40367065937
27725.54504420668
26659.70689899689
25767.28687507555
25029.80948759091
24405.56318631357
23864.63895478305
23410.88845984394
23090.50247510181
22546.96257409122
18080.72036725563
28168.45923841467
44839.7977908384
42103.89161372907
39885.66373130508
41294.48354858757
43026.20790421737
44098.34944014966
42629.78225232113
41170.34078058441
40311.76729143453
41531.93079096489
42361.23724858617
42703.38049607614
42849.37870231266
42897.90009158394
42858.45502528443
42606.79564044606
42129.58836559443
41412.61427154821
40206.11826858021
38678.39256115545
33078.14515552494
24355.16000085857
20022.1120758811
37017.55550463597
36309.04904981961
39224.5085127049
70133.93063333533
69124.50399794961
68053.71364693466
66843.32679515783
65658.55698342406
64290.47942354342
62882.05086824032
61372.95861917817
59703.38945026946
57922.29710273395
55490.98117874457
50181.29072063603
40868.1033754371
34195.15034794609
29668.88878748593
27789.58037117488
26720.14024243913
25862.60336490314
25144.9352917482
24548.48737921255
24036.24190779053
23588.3009802276
23255.92262588388
22773.01037823923
18745.89593360231
29209.18554051668
47465.66333906558
44843.68109586727
42077.86007536868
39884.72899482205
41297.80643081143
43025.6220925122
44097.41761281584
42634.92838209413
41151.86141588118
40311.85767899249
41528.47147086266
42333.69080963949
42696.33849339294
42847.55939796025
42895.22852356675
42856.555762494
42609.45868910288
42145.36679819873
41443.81231072413
40300.27749871476
38860.63586666698
33765.67798369407
25401.42835426036
20709.33712199695
38740.0836026307
37570.99898343061
40754.23791970226
71171.44065380897
70134.90955467385
69123.2033888205
68051.38132129142
66845.11409630527
65654.15345002453
64289.97521010466
62884.89160834838
61373.87605717316
59702.56101659239
57926.36847293045
55488.3686196148
50189.10237190485
40913.65693619222
34260.25096118732
29767.01696753094
27851.4929260419
26803.59038753944
25969.24921739777
25284.15691268053
24715.25864828686
24242.95583019332
23805.06324011848
23457.6600166701
23006.0490833882
19357.75808229153
30420.81405989053
37837.98002256159
47480.35491480966
44838.5103029353
42060.94056457472
39886.79242785498
41291.73469175796
43019.09893975902
44102.90519855187
42634.74931322863
41174.69680142993
40312.96773870113
41527.07354467305
42368.48011183395
42702.45057037962
42845.04397526367
42893.31803366924
42853.12169903531
42611.99088549247
42160.02495430961
41498.47098172246
40405.46021927769
39081.49166325833
34475.27595556517
26480.30224965385
21588.59293845945
40658.11921692137
38933.92599890728
42016.39285129702
72060.53720350134
71170.57433122586
70133.8048056649
69128.09515488682
68051.20758240789
66847.73527298468
65658.85208143429
64289.37082125478
62882.12641073843
61376.77802688556
59700.36893897365
57924.02566135762
55494.21086911469
50202.61870839141
40957.71401846014
34319.89050127196
29825.2524999228
27938.24079192619
26898.30476021455
26098.940555108
25444.86568424055
24915.61133505538
24484.86144805043
24064.0030048887
23701.78226841601
23256.54266461151
19921.37178493547
31854.1890263831
26603.73821495177
37836.56660399076
47466.42115955363
44838.09231246406
42084.60656578803
39887.03905486115
41294.47249127075
43025.69771291821
44099.74236277097
42635.71370658684
41154.33978758623
40313.22967837988
41523.88862869146
42327.53093636189
42692.00675546701
42842.56340722353
42889.89533919138
42851.59277911366
42616.32685402317
42188.92135481585
41559.82648102414
40541.7707554223
39323.21212107774
35225.72503087024
27582.71358597372
22686.64073979446
42300.21084249088
40166.05477845774
42563.15813645422
72981.89364577584
72059.93325653196
71167.37031302888
70128.38755360081
69123.09690245368
68052.88148410742
66842.83617730095
65656.2072313613
64289.54463525891
62879.31563605311
61372.41792489718
59700.77482928989
57920.64289312666
55492.25480554707
50221.81341615032
41019.78005044634
34402.74768589198
29934.39089153261
28038.56771855904
27015.95783481321
26246.6603157122
25637.31496346642
25149.78530444078
24763.26081343627
24374.49382781652
23983.44520463355
23528.91439897011
20452.64770481177
33210.19213312796
23809.97091751423
26646.7966830063
37837.70224410493
47463.30430495062
44831.32256446208
42062.11462856618
39888.14678503996
41291.61089826404
43012.13284950134
44130.15116146464
42637.43785319888
41176.55838380766
40314.79628463237
41520.85534595446
42374.33080407501
42704.27660672346
42838.67950356092
42887.42558597914
42849.25613789827
42627.60207138864
42221.81520747506
41642.60618120871
40707.39710970713
39594.01872869534
35990.86317660994
28686.75024879859
23951.6927922067
44146.3613952072
41354.40829452192
41651.4674953368
73802.21877651288
72981.57646730315
72059.76001986538
71173.386683752
70134.14008358605
69117.4906807411
68048.33669445942
66842.99046631088
65655.59752198488
64287.24772692406
62880.05085575973
61371.11497939639
59700.83228840121
57920.37473407746
55491.29703060681
50247.16694858784
41093.75320030481
34498.77814652109
30045.34012422615
28164.87482684591
27152.58505021351
26423.94822957006
25860.0894487345
25420.17021967531
25081.43473673445
24728.61930498259
24306.08814465705
23845.15911979288
21017.61613911834
33757.43062182638
25741.77602780126
23810.72117748735
26592.68849534883
37858.00453249932
47461.10347714745
44837.59038712769
42079.86693896396
39888.81127549888
41288.49520358893
43032.60606297448
44122.45613215087
42638.49303854969
41157.3834623603
40315.17714407726
41516.71383670058
42321.09938185845
42682.65335595298
42835.62484202981
42883.99937432774
42848.95097132934
42642.29060274715
42268.26894978819
41746.83157127888
40902.9234869899
39885.76519715795
36747.73971064349
29704.3483360459
25373.19066790472
43812.53400030464
40717.70521082477
42901.68203514148
39607.15367484701
74638.86976804733
73801.6703352989
72983.13307800821
72059.40308246123
71167.82499919557
70131.34353755246
69123.41280663334
68050.75972443352
66841.74273823241
65654.25037314689
64286.009223037
62878.05026213019
61368.48864632258
59697.61690106513
57919.32629223046
55493.17658424161
50266.76584616397
41175.0761901249
34610.72949493574
30192.16850751111
28312.81100538768
27321.08252169576
26629.80562315242
26117.17358015203
25731.87468865814
25431.4059005789
25121.53700684102
24680.4974001641
24194.96089172362
21191.47845344237
26319.44540361987
28072.39093799382
25747.53608885306
23810.99823560518
26584.44936995697
37839.37173615098
47467.02757440674
44842.04454132306
42073.99948128015
39889.92630935129
41289.51195492508
42999.2448768555
44123.02685483656
42642.47212172008
41179.57804468471
40317.4352206293
41510.65390653251
42365.99869743275
42687.64267338734
42831.26641842038
42880.75439723094
42849.34135457622
42663.97668718483
42328.3546005124
41871.98747714335
41124.56929756508
40206.48264992065
37394.1949870307
30574.93717458902
27013.05551077869
42306.40474443491
41068.07224587777
42649.88058298218
40314.11096771772
75394.62926289298
74634.45737767071
73801.44705792617
72980.39216141544
72060.21268359208
71171.59898131526
70131.11969380949
69118.65673919149
68046.36621661768
66839.08819241496
65652.58061449099
64284.40696697528
62876.88662793014
61367.7374171629
59696.47501777671
57916.17851890533
55493.49338846099
50301.16844772296
41279.45406155523
34748.06526640953
30361.90575512613
28495.7781835081
27521.57236297267
26871.07999070447
26414.07872887893
26077.90923367423
25822.81654442749
25543.36808305988
25087.02399830745
24570.52387439014
22809.74705450704
25534.42793479574
30073.28772930393
28073.15159892378
25744.2626686677
23811.31573496739
26629.17504216119
37865.88144568457
47459.05759815995
44833.20501243488
42084.70321168577
39891.00334514849
41289.19967189707
43043.52446392125
44120.22622848186
42644.26795124187
41163.13538805344
40318.07725242293
41505.70275285679
42319.74680952409
42679.75019988987
42825.79678225778
42878.9976311703
42851.36490119411
42693.37815044004
42402.6963488504
42015.85453316839
41367.1859310541
40521.14661140706
37982.22523478412
31324.52087110073
27588.60646035241
41210.70677831061
37894.17223586659
42512.51461155796
44436.98965569111
41988.65820314569
35054.80412172485
42476.06572157986
76146.70054713111
75363.15965049043
74638.79323905054
73801.05190869304
72978.5132103332
72058.03965252677
71168.18166842562
70129.96862342174
69121.58799492106
68048.4343984614
66840.92541358025
65651.31295449418
64282.12674061794
62875.53064606894
61364.68152823632
59694.31010425437
57915.16223671821
55495.1798237375
50337.66433957469
41396.80159095229
34907.99113925247
30571.91917868739
28714.96542284984
27762.27716045827
27156.26497576955
26751.82115516078
26472.78872663628
26245.69554133349
25993.68431977057
25544.61524265236
25068.04021697997
23632.42250620563
24107.35735989273
31362.75116608975
30075.87568428728
28063.43024847403
25737.52961733943
23811.22268062913
26582.42237421827
37854.0974809244
47461.5441153785
44845.24903626791
42076.88417601578
39893.34404971921
41286.4905739905
43001.84004988724
44117.94016028201
42648.34968045862
41170.56037525031
40321.43038149662
41494.4419730009
42307.2936250897
42672.28266422638
42820.37367297916
42875.44598778
42856.21835660533
42729.79565009223
42490.37239758592
42172.95662020362
41606.56451599418
40853.73136102694
38465.83506350016
31320.95814489808
27234.33088505658
30070.89991218701
41788.09266570818
39509.58835251954
43790.48471460427
44479.03133451999
43471.26633416172
36711.82569639778
42814.87068563464
76861.07756100828
76110.36402456816
75399.5255822177
74633.9827289981
73800.545437398
72979.70826795147
72056.19853177921
71167.68776603996
70128.69237715771
69118.24822278113
68043.14639354309
66836.26227197381
65649.63821940072
64280.90636879038
62872.77121440331
61364.23874575915
59692.31962175327
57910.62101355815
55495.90791419119
50381.49790756922
41538.82215706626
35103.99039529542
30820.62827004872
28977.88367950028
28054.1077363054
27492.89566808278
27148.58219847527
26904.55075485394
26713.46047227952
26402.62417498594
25472.30843056309
26267.56731680288
25135.8809266549
23412.49260828067
23920.83744025802
32613.91679471475
31360.94721961939
30072.99944885057
28081.78903930796
25757.61936676065
23812.45492037441
26638.47625191023
37874.1953385741
47458.51859654721
44837.13875747631
42100.71463480238
39894.79304214188
41283.51838313865
43050.02147284241
44114.45430733907
42653.1409689085
41173.08765774687
40322.7462965212
41485.78615127277
42295.40189800117
42662.71552091515
42811.09780196207
42872.3602773405
42861.57456035208
42770.56747176826
42586.60627447278
42327.29330297474
41857.12289034163
41125.61225125546
38912.69322873087
34191.50364177189
28406.2500719167
30811.41435511623
44158.89150313337
41088.48855103941
35878.45755662976
44379.63716946823
44764.99094646476
44876.53662704775
43104.75566812218
29993.15246079242
41494.7404152688
77573.50434755645
76857.91548121438
76153.3440175318
75391.84425588636
74639.07443738732
73801.90161479458
72980.09789561674
72056.69706887344
71166.42411962883
70127.68626558461
69118.93687421526
68045.35380875095
66835.50531003754
65646.8550740293
64277.36648319681
62869.07575370382
61359.38333761669
59689.74478827506
57908.64624642875
55496.74604350387
50433.45367203968
41708.58421776639
35335.94689869464
31131.64614000538
29295.29480616049
28405.97502046257
27900.46599830511
27593.97402530187
27405.47722451549
27119.88918473532
26971.5868670999
25995.58967119484
26774.17179205742
25560.31320122244
24077.29719897218
23843.32544197072
33930.12907858511
32615.83723442498
31363.22298927574
30073.97816549761
28067.65877931525
25741.62392323818
23811.24490398024
26638.9050821837
37891.49834220378
47460.70391936113
44844.80571980221
42050.79362225832
39899.45160212425
41280.57183194713
43005.25743036859
44111.40357890323
42659.43682520215
41178.71524170412
40326.81398347693
41470.18045451071
42283.68834644916
42649.02671316649
42801.91129980361
42866.2130824252
42867.62520614223
42809.15373821531
42678.74159634738
42480.39145181573
42094.58762214262
41290.76234510691
38359.23574827788
40162.29351602255
33444.7797568542
30676.84915227482
28157.55007778542
43832.54434773573
42729.60116975217
36352.18670060037
43387.3579381715
44173.52027655198
43933.66460035756
43466.98702321794
35359.93319448196
41453.48186819061
78222.61705009339
77576.93589264297
76860.34969209545
76143.50470268138
75392.30153442036
74634.009576065
73798.0311059728
72977.50804466658
72055.3174778181
71164.86991498443
70125.38714116157
69113.22482603771
68040.61205016512
66832.74260188712
65643.67157583611
64274.2783489017
62866.4985414946
61356.94127801179
59686.25247519683
57904.0916197193
55498.79975209798
50491.24718445635
41904.74724933449
35609.67867075685
31487.33430980945
29680.98197178779
28836.73203634392
28361.8685740367
28135.24186719682
27857.05365359509
27710.88939104297
27325.30363611703
25936.31407165852
26689.24758611083
27283.03579131375
25727.88307832322
23775.37062238637
25512.12470274814
23787.61438192367
35293.78951939545
33927.99420565377
32613.62421816548
31362.6050413887
30073.57484705172
28077.14617076848
25754.20481044803
23815.17153973872
26648.85058226158
37859.12940138593
47459.62951127006
44845.69951391345
42062.74062711957
39902.25984495949
41275.82765194911
43040.48862744118
44107.33657318604
42668.13237023162
41187.35094823545
40328.86606347794
41453.49503314873
42266.62774090581
42632.91368443573
42788.82941791964
42855.40205178758
42872.04471258466
42839.35795573991
42760.4942790733
42614.32814142469
42233.47208932529
41806.10504020841
39515.69498722099
40336.81678543134
34369.40381516259
32567.18415139325
28777.58750720227
43973.37783743823
40758.72931287411
31609.37502558519
43558.18546894978
43682.06634214237
44415.61465724863
43873.59561845382
42735.29406219772
31133.33334555951
78877.20795300498
78208.25743788977
77571.16812361336
76859.8925884924
76145.90992574338
75394.86818362544
74637.20535700933
73799.97842950607
72977.10930510402
72055.67177073046
71163.62760459658
70126.07637540932
69113.81012105475
68038.52145317981
66829.78457333121
65640.52117409147
64270.35085404862
62861.50198467758
61351.65641626952
59681.56676322671
57899.55822147042
55502.53143709927
50565.5341745784
42138.40654348883
35937.85612767723
31914.14921340585
30149.79925380275
29343.06734156701
28966.84078427986
28662.30770935326
27876.9593136983
28515.03980352875
28015.46906546336
27941.55048741835
26372.58435252577
27076.59991540001
27633.35130618001
26196.47437435679
24474.81360026097
26055.69652735968
23800.40383659383
36646.26235942922
35291.30766053458
33930.73230635488
32613.95867916761
31362.98077587528
30077.92557316989
28077.18963241528
25746.95744274747
23807.11351175783
26629.54400004512
37846.04051065067
47440.20638272394
44850.99580787092
42062.9809250046
39908.86776145769
41268.36985642461
43028.11780509552
44103.2867109422
42679.01296723486
41195.36908982833
40334.53158280729
41429.9626121259
42245.5481537081
42608.57521605235
42772.68826207578
42840.48003614057
42871.56499406879
42857.57912537694
42809.67131598711
42714.73894453723
42187.95989715144
42594.74393904142
41838.49175948127
39779.45527755286
41147.95562763322
37544.80158643593
33241.45598641386
31982.24723013486
44048.8926310023
42946.50809585774
31052.67848172471
42945.28770444415
43302.00334921086
43750.83813686274
43760.00020188197
42213.75353649152
30358.03655609566
79494.19857370008
78869.8188867921
78224.06145200627
77572.7815307713
76860.77655994408
76142.01469622644
75391.82135667828
74634.95220116721
73796.63234224534
72975.33021415095
72052.50941552519
71161.51395439026
70121.70782806138
69109.84765676582
68035.29449610897
66826.68791952576
65636.70153236855
64265.72512593992
62857.13811488412
61346.06899007008
59676.59569987543
57892.23786599105
55503.28688263492
50647.72736328491
42411.9827020994
36318.96461007225
32422.78220657938
30708.6525088667
30008.04059192936
29389.85926164418
29246.92060880711
28323.91575999654
28728.55890608331
28377.00785650543
27999.58953659407
26946.51208336043
27611.44996971405
27783.44660004428
26561.84243793915
25908.00688193188
24205.79844297482
26538.21460490335
25184.81358760356
38155.31144366701
36650.96735741307
35298.91916378976
33925.15117575372
32613.92012100457
31361.58776592274
30070.36108235966
28083.75069002771
25753.14546031451
23810.29880453576
26611.25091488525
37837.71187982522
47460.27369029554
44857.58803930018
42072.84046326049
39915.19204901467
41261.31615372672
43024.10303097267
44098.7615203999
42691.9093115892
41207.99970997714
40341.08290154937
41400.78124918007
42215.8657480517
42575.81226821305
42748.98502874175
42822.91133387313
42864.1709349768
42864.84124696078
42846.02024021239
42819.47445181062
42475.22120022969
42675.62901022875
42222.91941357309
40780.7990340852
41377.00261251212
38268.91309439121
36257.44212002901
34353.07331712121
43499.69100528906
39712.99537487187
32954.81123627541
31087.46863444016
44260.22147230538
44123.41243182171
44134.98300998727
43590.79557746139
43502.56283799779
43090.91417664734
37952.95935977215
80120.99776549256
79480.53390565676
78877.56924944266
78223.4806791865
77571.85301822425
76858.91789347975
76144.96801051266
75391.13290884426
74634.8913855873
73797.14373555324
72974.77958212455
72050.86788899028
71159.28752574734
70119.64228400605
69107.46964333989
68031.61594151103
66822.4785796194
65631.35117622036
64260.46118384965
62850.40426369197
61339.04071275108
59669.98333790502
57884.93240287096
55506.12963057342
50743.87188927899
42724.68781203972
36780.51501398861
33003.60020127749
31431.71382174572
30470.11589084982
30109.05048688852
29723.28998930752
29444.19258372188
28898.86657024355
28395.14390226268
27322.55479213003
27899.11759964932
28235.7368581767
27163.82642000128
26474.40835332921