/*--------------------------------*- C++ -*----------------------------------*\
| =========                 |                                                 |
| \\      /  F ield         | OpenFOAM: The Open Source CFD Toolbox           |
|  \\    /   O peration     | Version:  v1912                                 |
|   \\  /    A nd           | Website:  www.openfoam.com                      |
|    \\/     M anipulation  |                                                 |
\*---------------------------------------------------------------------------*/
FoamFile
{
    version     2.0;
    format      ascii;
    class       volScalarField;
    location    "3000";
    object      rDeltaTau;
}
// * * * * * * * * * * * * * * * * * * * * * * * * * * * * * * * * * * * * * //

dimensions      [0 0 -1 0 0 0 0];


internalField   nonuniform List<scalar> 
18230
(
3264.584298397497
3328.263139196511
3343.120190313704
3200.572841566173
3263.003077643638
3263.003077643638
3379.941853710242
3277.568814033043
3137.816511339386
3199.022625140822
3199.022625140822
3199.022625140822
3313.668484029649
3313.668484029649
3213.302758855924
3076.290697391555
3136.296691314531
3136.296691314531
3136.296691314531
3136.296691314531
3248.694592185931
3248.694592185931
3248.694592185931
3150.296822407769
3015.971271952505
3074.800677759344
3074.800677759344
3074.800677759344
3074.800677759344
3074.800677759344
3184.994698221501
3184.994698221501
3184.994698221501
3184.994698221501
3088.526296478205
2956.834580345593
3014.510468391514
3014.510468391514
3014.510468391514
3014.510468391514
3014.510468391514
3014.510468391514
3122.543821785785
3122.543821785785
3122.543821785785
3122.543821785785
3122.543821785785
3027.966957331574
2898.857431711365
2955.40241999168
2955.40241999168
2955.40241999168
2955.40241999168
2955.40241999168
2955.40241999168
2955.40241999168
3129.247044290596
3061.317472339005
3061.317472339005
3061.317472339005
3061.317472339005
3061.317472339005
2968.595056207425
2842.017089913103
2897.45335293302
2897.45335293302
2897.45335293302
2897.45335293302
2897.45335293302
2897.45335293302
2897.45335293302
2897.45335293302
3191.831985176408
3067.889259108427
3001.291639548044
3001.291639548044
3001.291639548044
3001.291639548044
3001.291639548044
2910.387310007279
2786.291264620689
2940.374062808297
2840.640542091196
2840.640542091196
2840.640542091196
2840.640542091196
2840.640542091196
2840.640542091196
2840.640542091196
2840.640542091196
3255.668624879936
3129.247044290596
3007.73456775336
2942.442783870631
2942.442783870631
2942.442783870631
2942.442783870631
2942.442783870631
2853.320892163999
2731.658102569303
2999.181544064463
2882.719669419899
2784.941707932544
2784.941707932544
2784.941707932544
2784.941707932544
2784.941707932544
2784.941707932544
2784.941707932544
2784.941707932544
3257.685148931094
3191.831985176408
3067.889259108427
2948.759380150353
2884.747827324148
2884.747827324148
2884.747827324148
2884.747827324148
2884.747827324148
2797.373423690196
2678.096178989513
3059.165174945752
2940.374062808297
2826.195754333234
2730.335007777004
2730.335007777004
2730.335007777004
2730.335007777004
2730.335007777004
2730.335007777004
2730.335007777004
2730.335007777004
3193.808969540289
3193.808969540289
3129.247044290596
3007.73456775336
2890.940568774855
2828.18414443544
2828.18414443544
2828.18414443544
2828.18414443544
2828.18414443544
2742.522964402152
2625.584489205405
3120.348478444667
2999.181544064463
2882.719669419899
2770.780151307092
2676.799027232357
2676.799027232357
2676.799027232357
2676.799027232357
2676.799027232357
2676.799027232357
2676.799027232357
2676.799027232357
3205.31339615404
3131.185264255185
3131.185264255185
3067.889259108427
2948.759380150353
2834.255459583192
2772.729553368078
2772.729553368078
2772.729553368078
2772.729553368078
2772.729553368078
2688.748004315836
2574.102440397456
3182.75544801356
3059.165174945752
2940.374062808297
2826.195754333234
2716.451128732443
2624.312771796428
2624.312771796428
2624.312771796428
2624.312771796428
2624.312771796428
2624.312771796428
2624.312771796428
2624.312771796428
3199.723862871014
3142.46411387651
3069.789474759985
3069.789474759985
3007.73456775336
2890.940568774855
2778.681823120776
2718.362307223606
2718.362307223606
2718.362307223606
2718.362307223606
2718.362307223606
2636.027455211603
2523.629843526917
3246.410556973832
3120.348478444667
2999.181544064463
2882.719669419899
2770.780151307092
2663.187381110238
2572.855658623949
2572.855658623949
2572.855658623949
2572.855658623949
2572.855658623949
2572.855658623949
2572.855658623949
2572.855658623949
3136.984179285308
3136.984179285308
3080.847170467166
3009.597524274495
3009.597524274495
2948.759380150353
2834.255459583192
2724.197865804682
2665.061085513339
2665.061085513339
2665.061085513339
2665.061085513339
2665.061085513339
2584.340642364317
2474.146905418546
3226.777103705315
3182.75544801356
3059.165174945752
2940.374062808297
2826.195754333234
2716.451128732443
2610.968020696312
2522.407508454852
2522.407508454852
2522.407508454852
2522.407508454852
2522.407508454852
2522.407508454852
2522.407508454852
2522.407508454852
3184.206589635535
3075.474685573831
3075.474685573831
3020.43840241879
2950.58580811225
2950.58580811225
2890.940568774855
2778.681823120776
2670.78222137714
2612.804985797391
2612.804985797391
2612.804985797391
2612.804985797391
2612.804985797391
2533.667296435605
2425.634220998575
3291.312645779421
3163.506964416976
3120.348478444667
2999.181544064463
2882.719669419899
2770.780151307092
2663.187381110238
2559.77256931011
2472.948537700835
2472.948537700835
2472.948537700835
2472.948537700835
2472.948537700835
2472.948537700835
2472.948537700835
2472.948537700835
3172.851163576809
3121.771166309348
3015.171260366501
3015.171260366501
2961.214120018422
2892.731184423775
2892.731184423775
2834.255459583192
2724.197865804682
2618.413942526608
2561.573515487638
2561.573515487638
2561.573515487638
2561.573515487638
2561.573515487638
2483.987545525103
2378.072765684877
3357.13889869501
3226.777103705315
3101.477416095074
3059.165174945752
2940.374062808297
2826.195754333234
2716.451128732443
2610.968020696312
2509.580950304029
2424.459350687093
2424.459350687093
2424.459350687093
2424.459350687093
2424.459350687093
2424.459350687093
2424.459350687093
2424.459350687093
3247.894510851615
3110.638395663538
3060.559966969949
2956.050255261275
2956.050255261275
2903.151098057276
2836.010965121348
2836.010965121348
2778.681823120776
2670.78222137714
2567.072492673145
2511.34658381141
2511.34658381141
2511.34658381141
2511.34658381141
2511.34658381141
2435.281907377552
2331.44388792635
3370.810090849073
3291.312645779421
3163.506964416976
3040.664133426543
2999.181544064463
2882.719669419899
2770.780151307092
2663.187381110238
2559.77256931011
2460.373480690224
2376.92093204617
2376.92093204617
2376.92093204617
2376.92093204617
2376.92093204617
2376.92093204617
2376.92093204617
2376.92093204617
3312.852401068648
3184.210304756486
3049.645485944645
3000.54898722544
2898.08848555027
2898.08848555027
2846.22656672282
2780.402906981713
2780.402906981713
2724.197865804682
2618.413942526608
2516.737737914847
2462.104493932755
2462.104493932755
2462.104493932755
2462.104493932755
2462.104493932755
2387.531281742698
2285.729301888578
3304.715775342228
3304.715775342228
3226.777103705315
3101.477416095074
2981.043268065238
2940.374062808297
2826.195754333234
2716.451128732443
2610.968020696312
2509.580950304029
2412.130863421788
2330.314639260951
2330.314639260951
2330.314639260951
2330.314639260951
2330.314639260951
2330.314639260951
2330.314639260951
2330.314639260951
3330.544682683119
3247.894510851615
3121.77480858479
2989.848515632005
2941.714693358274
2841.263221127715
2841.263221127715
2790.418202669431
2725.885202923248
2725.885202923248
2670.78222137714
2567.072492673145
2467.389939132203
2413.827935228192
2413.827935228192
2413.827935228192
2413.827935228192
2413.827935228192
2340.716942884998
2240.91108028292
3239.917426806106
3239.917426806106
3239.917426806106
3163.506964416976
3040.664133426543
2922.591439279645
2882.719669419899
2770.780151307092
2663.187381110238
2559.77256931011
2460.373480690224
2364.834179825283
2284.622195353873
2284.622195353873
2284.622195353873
2284.622195353873
2284.622195353873
2284.622195353873
2284.622195353873
2284.622195353873
3346.803653881748
3265.23988498345
3184.210304756486
3060.563537828225
2931.224034933338
2884.034013096347
2785.552177576191
2785.552177576191
2735.704120264148
2672.436473454165
2672.436473454165
2618.413942526608
2516.737737914847
2419.009744247258
2366.497975713913
2366.497975713913
2366.497975713913
2366.497975713913
2366.497975713913
2294.820532240194
2196.971647336196
3253.401539440751
3176.389634123633
3176.389634123633
3176.389634123633
3101.477416095074
2981.043268065238
2865.285724783966
2826.195754333234
2716.451128732443
2610.968020696312
2509.580950304029
2412.130863421788
2318.46488218165
2239.825681719484
2239.825681719484
2239.825681719484
2239.825681719484
2239.825681719484
2239.825681719484
2239.825681719484
2239.825681719484
3254.903763001217
3281.180052825243
3201.215573513186
3121.77480858479
3000.552488066887
2873.749053856213
2827.484326565046
2730.933507427639
2730.933507427639
2682.062863004066
2620.035758288397
2620.035758288397
2567.072492673145
2467.389939132203
2371.578180634567
2320.096054621483
2320.096054621483
2320.096054621483
2320.096054621483
2320.096054621483
2249.824051215876
2153.893771898231
3318.469570229566
3189.609352392893
3114.107484434935
3114.107484434935
3114.107484434935
3040.664133426543
2922.591439279645
2809.103651748987
2770.780151307092
2663.187381110238
2559.77256931011
2460.373480690224
2364.834179825283
2273.004786452598
2195.907531097533
2195.907531097533
2195.907531097533
2195.907531097533
2195.907531097533
2195.907531097533
2195.907531097533
2195.907531097533
3191.082120589428
3191.082120589428
3216.843189044356
3138.446640699202
3060.563537828225
2941.718125555772
2817.401033192366
2772.043457416712
2677.385791595724
2677.385791595724
2629.473395102026
2568.662508125879
2568.662508125879
2516.737737914847
2419.009744247258
2325.076647680948
2274.603975119101
2274.603975119101
2274.603975119101
2274.603975119101
2274.603975119101
2205.709854133212
2111.66056068454
3326.182898583786
3253.401539440751
3127.067992542051
3053.046553367583
3053.046553367583
3053.046553367583
2981.043268065238
2865.285724783966
2754.023187989203
2716.451128732443
2610.968020696312
2509.580950304029
2412.130863421788
2318.46488218165
2228.436065149605
2152.850520683856
2152.850520683856
2152.850520683856
2152.850520683856
2152.850520683856
2152.850520683856
2152.850520683856
2152.850520683856
3199.636712351239
3128.511882930812
3128.511882930812
3153.767832396427
3076.908471273727
3000.552488066887
2884.037377995855
2762.15787567879
2717.689664134031
2624.8880309762
2624.8880309762
2577.91509323728
2518.296576593999
2518.296576593999
2467.389939132203
2371.578180634567
2279.486909491126
2230.003897175589
2230.003897175589
2230.003897175589
2230.003897175589
2230.003897175589
2162.460641307071
2070.25545165151
3374.852056361032
3260.963626062536
3189.609352392893
3065.752933864756
2993.182895458414
2993.182895458414
2993.182895458414
2922.591439279645
2809.103651748987
2700.022733322748
2663.187381110238
2559.77256931011
2460.373480690224
2364.834179825283
2273.004786452598
2184.74124034275
2110.637765376329
2110.637765376329
2110.637765376329
2110.637765376329
2110.637765376329
2110.637765376329
2110.637765376329
2110.637765376329
3263.629446598264
3136.898737599254
3067.168512677266
3067.168512677266
3091.929247447478
3016.576932621301
2941.718125555772
2827.487625486132
2707.997917332147
2664.401631503952
2573.419638211961
2573.419638211961
2527.367738467921
2468.918212347058
2468.918212347058
2419.009744247258
2325.076647680948
2234.791087736397
2186.278330564303
2186.278330564303
2186.278330564303
2186.278330564303
2186.278330564303
2120.059452261834
2029.66220750148
3442.349097488252
3308.678486628462
3197.023162806408
3127.067992542051
3005.640131239957
2934.493034763151
2934.493034763151
2934.493034763151
2865.285724783966
2754.023187989203
2647.081111100733
2610.968020696312
2509.580950304029
2412.130863421788
2318.46488218165
2228.436065149605
2141.903176806618
2069.252711153264
2069.252711153264
2069.252711153264
2069.252711153264
2069.252711153264
2069.252711153264
2069.252711153264
2069.252711153264
3328.90203553023
3199.636712351239
3075.390919214954
3007.027953605163
3007.027953605163
3031.303183772037
2957.428365315001
2884.037377995855
2772.04669165307
2654.899918953085
2612.158462258777
2522.96042961957
2522.96042961957
2477.811508301884
2420.508051320645
2420.508051320645
2371.578180634567
2279.486909491126
2190.971654643527
2143.410128004219
2143.410128004219
2143.410128004219
2143.410128004219
2143.410128004219
2078.489659080229
1989.864909315176
3346.940241518201
3374.852056361032
3243.802437871042
3134.336434123929
3065.752933864756
2946.706011019565
2876.953955650148
2876.953955650148
2876.953955650148
2809.103651748987
2700.022733322748
2595.177559902679
2559.77256931011
2460.373480690224
2364.834179825283
2273.004786452598
2184.74124034275
2099.905075300606
2028.679128581631
2028.679128581631
2028.679128581631
2028.679128581631
2028.679128581631
2028.679128581631
2028.679128581631
2028.679128581631
3395.480076240834
3263.629446598264
3136.898737599254
3015.08913648525
2948.066621181532
2948.066621181532
2971.865866443173
2899.439573838236
2827.487625486132
2717.692834953991
2602.843057797143
2560.939668881153
2473.490617274088
2473.490617274088
2429.226968923415
2373.047109137888
2373.047109137888
2325.076647680948
2234.791087736397
2148.011426121105
2101.382478435509
2101.382478435509
2101.382478435509
2101.382478435509
2101.382478435509
2037.734959882577
1950.847950308996
3254.419456809509
3281.313962272746
3308.678486628462
3180.198468501021
3072.878856984244
3005.640131239957
2888.927461783887
2820.543093774655
2820.543093774655
2820.543093774655
2754.023187989203
2647.081111100733
2544.291725394783
2509.580950304029
2412.130863421788
2318.46488218165
2228.436065149605
2141.903176806618
2058.730465980986
1988.90110645258
1988.90110645258
1988.90110645258
1988.90110645258
1988.90110645258
1988.90110645258
1988.90110645258
1988.90110645258
3328.90203553023
3328.90203553023
3199.636712351239
3075.390919214954
2955.969741652205
2890.261393315228
2890.261393315228
2913.593986708993
2842.587817488467
2772.04669165307
2664.404740150972
2551.806919408963
2510.725165569758
2424.990801249106
2424.990801249106
2381.595067571976
2326.516773664596
2326.516773664596
2279.486909491126
2190.971654643527
2105.893555020691
2060.178900426969
2060.178900426969
2060.178900426969
2060.178900426969
2060.178900426969
1997.779372433899
1912.596029714702
3259.59707532699
3190.607310597558
3216.974472816417
3243.802437871042
3117.841635785315
3012.62633037671
2946.706011019565
2832.281825278321
2765.238327230054
2765.238327230054
2765.238327230054
2700.022733322748
2595.177559902679
2494.403652347827
2460.373480690224
2364.834179825283
2273.004786452598
2184.74124034275
2099.905075300606
2018.363201942143
1949.903045541745
1949.903045541745
1949.903045541745
1949.903045541745
1949.903045541745
1949.903045541745
1949.903045541745
1949.903045541745
3263.629446598264
3263.629446598264
3263.629446598264
3136.898737599254
3015.08913648525
2898.009550639417
2833.589601289439
2833.589601289439
2856.464692851954
2786.850801459281
2717.692834953991
2612.161509951933
2501.771489616631
2461.495260362508
2377.441962008927
2377.441962008927
2334.897125070564
2280.898797710388
2280.898797710388
2234.791087736397
2148.011426121105
2064.601524530089
2019.783235712715
2019.783235712715
2019.783235712715
2019.783235712715
2019.783235712715
1958.607227876372
1875.09414677912
3264.965824198699
3195.683407183323
3128.046382938783
3153.89654197688
3180.198468501021
3056.707486064034
2953.555225859519
2888.927461783887
2776.746887527765
2711.017967872602
2711.017967872602
2711.017967872602
2647.081111100733
2544.291725394783
2445.493776811595
2412.130863421788
2318.46488218165
2228.436065149605
2141.903176806618
2058.730465980986
1978.787452884454
1911.669652491907
1911.669652491907
1911.669652491907
1911.669652491907
1911.669652491907
1911.669652491907
1911.669652491907
1911.669652491907
3199.636712351239
3199.636712351239
3199.636712351239
3199.636712351239
3075.390919214954
2955.969741652205
2841.185833960213
2778.029020871999
2778.029020871999
2800.455581227406
2732.206668097334
2664.404740150972
2560.94265681562
2452.717146682971
2413.230647414223
2330.825452949929
2330.825452949929
2289.114828500553
2236.175291872929
2236.175291872929
2190.971654643527
2105.893555020691
2024.119141696165
1980.179642855603
1980.179642855603
1980.179642855603
1980.179642855603
1980.179642855603
1920.203164584678
1838.32759488149
3270.216262638135
3200.946886469313
3133.022948218944
3066.712140136061
3092.055433310666
3117.841635785315
2996.772045160818
2895.642378293646
2832.281825278321
2722.30087012526
2657.860752816276
2657.860752816276
2657.860752816276
2595.177559902679
2494.403652347827
2397.54291844274
2364.834179825283
2273.004786452598
2184.74124034275
2099.905075300606
2018.363201942143
1939.987698906328
1874.185933815595
1874.185933815595
1874.185933815595
1874.185933815595
1874.185933815595
1874.185933815595
1874.185933815595
1874.185933815595
3136.898737599254
3136.898737599254
3136.898737599254
3136.898737599254
3136.898737599254
3015.08913648525
2898.009550639417
2785.47630780413
2723.557863599999
2723.557863599999
2745.544687477849
2678.63398833072
2612.161509951933
2510.728094917275
2404.624653610756
2365.912399425709
2285.122993088166
2285.122993088166
2244.23022402015
2192.32871752248
2192.32871752248
2148.011426121105
2064.601524530089
1984.430531074672
1941.352591034905
1941.352591034905
1941.352591034905
1941.352591034905
1941.352591034905
1882.552122141842
1845.639335433178
1837.437190015289
3346.203383675161
3206.094375135427
3138.183222028738
3071.591125704847
3006.580529545158
3031.426895402614
3056.707486064034
2938.011808981194
2838.865076758477
2776.746887527765
2668.922421691432
2605.745836094388
2605.745836094388
2605.745836094388
2544.291725394783
2445.493776811595
2350.532272983079
2318.46488218165
2228.436065149605
2141.903176806618
2058.730465980986
1978.787452884454
1901.948724417968
1837.437190015289
1837.437190015289
1837.437190015289
1837.437190015289
1837.437190015289
1837.437190015289
1837.437190015289
1837.437190015289
3080.10110138191
3075.390919214954
3075.390919214954
3075.390919214954
3075.390919214954
3075.390919214954
2955.969741652205
2841.185833960213
2730.859125298167
2670.154768235293
2670.154768235293
2691.71047791946
2626.111753265412
2560.94265681562
2461.498132271838
2357.47515059878
2319.521960221284
2240.316659890359
2240.316659890359
2200.225709823676
2149.341879923999
2149.341879923999
2105.893555020691
2024.119141696165
1945.52012850458
1903.286853955789
1903.286853955789
1903.286853955789
1903.286853955789
1903.286853955789
1845.639335433178
1809.450328856057
1801.40900981891
3413.127451348664
3280.591552622706
3143.229779544536
3076.650217675234
3011.363848730242
2947.627970142312
2971.987152355504
2996.772045160818
2880.403734295288
2783.201055645565
2722.30087012526
2616.590609501404
2554.652780484694
2554.652780484694
2554.652780484694
2494.403652347827
2397.54291844274
2304.443404885371
2273.004786452598
2184.74124034275
2099.905075300606
2018.363201942143
1939.987698906328
1864.655612174479
1801.40900981891
1801.40900981891
1801.40900981891
1801.40900981891
1801.40900981891
1801.40900981891
1801.40900981891
1801.40900981891
3023.358151441052
3019.706962139127
3015.08913648525
3015.08913648525
3015.08913648525
3015.08913648525
3015.08913648525
2898.009550639417
2785.47630780413
2677.312867939379
2617.798792387542
2617.798792387542
2638.931841097509
2574.619365946482
2510.728094917275
2413.233463011606
2311.250147645863
2274.041137471847
2196.38888224545
2196.38888224545
2157.084029238898
2107.197921494117
2107.197921494117
2064.601524530089
1984.430531074672
1907.37267500449
1865.967503878225
1865.967503878225
1865.967503878225
1865.967503878225
1865.967503878225
1865.967503878225
1809.450328856057
1773.970910643193
1773.970910643193
1766.087264528343
1766.087264528343
3441.175996228862
3346.203383675161
3216.266228061477
3081.597823082878
3016.323742818857
2952.31749875514
2889.831343276776
2913.71289446618
2938.011808981194
2823.925229701263
2728.628485927024
2668.922421691432
2565.284911275886
2504.561549494798
2504.561549494798
2504.561549494798
2445.493776811595
2350.532272983079
2259.258240083697
2228.436065149605
2141.903176806618
2058.730465980986
1978.787452884454
1901.948724417968
1828.093737425959
1766.087264528343
1766.087264528343
1766.087264528343
1766.087264528343
1766.087264528343
1766.087264528343
1766.087264528343
1766.087264528343
3040.741767285039
2964.076619059855
2960.497021705027
2955.969741652205
2955.969741652205
2955.969741652205
2955.969741652205
2955.969741652205
2841.185833960213
2730.859125298167
2624.81653719547
2566.469404301512
2566.469404301512
2587.188079507362
2524.136633280865
2461.498132271838
2365.915159815299
2265.931517299865
2229.452095560634
2153.32243357397
2153.32243357397
2114.788263959704
2065.880315190311
2065.880315190311
2024.119141696165
1945.52012850458
1869.973210788716
1829.379905762965
1829.379905762965
1829.379905762965
1829.379905762965
1829.379905762965
1829.379905762965
1829.379905762965
1773.970910643193
1739.187167297248
1739.187167297248
1731.458102478768
1731.458102478768
3373.701957087119
3373.701957087119
3280.591552622706
3153.202184373997
3021.174336355763
2957.180140018487
2894.428920348176
2833.167983604683
2856.58126908449
2880.403734295288
2768.554146765944
2675.125966595122
2616.590609501404
2514.985207133222
2455.452499504704
2455.452499504704
2455.452499504704
2397.54291844274
2304.443404885371
2214.959058905586
2184.74124034275
2099.905075300606
2018.363201942143
1939.987698906328
1864.655612174479
1792.248762182313
1731.458102478768
1731.458102478768
1731.458102478768
1731.458102478768
1731.458102478768
1731.458102478768
1731.458102478768
1731.458102478768
1731.458102478768
3057.268442243779
2981.119379691215
2905.957469666525
2902.448060495124
2898.009550639417
2898.009550639417
2898.009550639417
2898.009550639417
2898.009550639417
2785.47630780413
2677.312867939379
2573.349546270069
2516.146474805404
2516.146474805404
2536.458901477806
2474.643758118495
2413.233463011606
2319.524666485588
2221.501487548888
2185.737348588857
2111.10042507252
2111.10042507252
2073.321827411475
2025.372858029716
2025.372858029716
1984.430531074672
1907.37267500449
1833.307069400702
1793.509711532319
1793.509711532319
1793.509711532319
1793.509711532319
1793.509711532319
1793.509711532319
1793.509711532319
1793.509711532319
1739.187167297248
1705.085458134557
1705.085458134557
1705.085458134557
1697.507943606635
1697.507943606635
3316.347786536836
3307.550938320705
3307.550938320705
3216.266228061477
3091.374690562742
2961.935623878199
2899.196215704399
2837.675412106055
2777.615670200669
2800.569871651461
2823.925229701263
2714.268771339161
2622.672516269728
2565.284911275886
2465.671771699237
2407.306372063435
2407.306372063435
2407.306372063435
2350.532272983079
2259.258240083697
2171.528489123123
2141.903176806618
2058.730465980986
1978.787452884454
1901.948724417968
1828.093737425959
1757.106629590503
1697.507943606635
1697.507943606635
1697.507943606635
1697.507943606635
1697.507943606635
1697.507943606635
1697.507943606635
1697.507943606635
1697.507943606635
3073.964316387538
2997.322002199784
2922.666058520799
2848.977911437769
2845.537314210906
2841.185833960213
2841.185833960213
2841.185833960213
2841.185833960213
2841.185833960213
2730.859125298167
2624.81653719547
2522.891712029479
2466.810269417063
2466.810269417063
2486.724413213535
2426.12133148872
2365.915159815299
2274.043790672145
2177.942634851851
2142.879753518487
2069.706299090705
2069.706299090705
2032.668458246544
1985.659664735016
1985.659664735016
1945.52012850458
1869.973210788716
1797.359871961472
1758.34285444345
1758.34285444345
1758.34285444345
1758.34285444345
1758.34285444345
1758.34285444345
1758.34285444345
1758.34285444345
1758.34285444345
1705.085458134557
1671.65240993584
1671.65240993584
1671.65240993584
1664.223474124152
1664.223474124152
3318.104962626207
3251.321359349839
3242.696998353632
3242.696998353632
3153.202184373997
3030.759500551707
2903.858454782548
2842.349231082744
2782.034717751034
2723.152617843793
2745.656736913197
2768.554146765944
2661.047815038393
2571.247564970321
2514.985207133222
2417.3252663718
2360.104286336702
2360.104286336702
2360.104286336702
2304.443404885371
2214.959058905586
2128.949499140317
2099.905075300606
2018.363201942143
1939.987698906328
1864.655612174479
1792.248762182313
1722.653558422062
1664.223474124152
1664.223474124152
1664.223474124152
1664.223474124152
1664.223474124152
1664.223474124152
1664.223474124152
1664.223474124152
1664.223474124152
1664.223474124152
1664.223474124152
3042.598013051924
3013.690506262293
2938.550982548807
2865.358880902744
2793.115599448793
2789.742464912653
2785.47630780413
2785.47630780413
2785.47630780413
2785.47630780413
2785.47630780413
2677.312867939379
2573.349546270069
2473.423247087725
2418.441440604964
2418.441440604964
2437.965110993662
2378.550324988942
2319.524666485588
2229.454696737397
2135.237877305736
2100.862503449497
2029.123822637946
2029.123822637946
1992.8122139672
1946.725161504917
1946.725161504917
1907.37267500449
1833.307069400702
1762.117521530855
1723.86554357201
1723.86554357201
1723.86554357201
1723.86554357201
1723.86554357201
1723.86554357201
1723.86554357201
1723.86554357201
1723.86554357201
1690.064258403931
1671.65240993584
1638.874911701804
1638.874911701804
1638.874911701804
1631.591641298189
3253.044081006085
3253.044081006085
3187.569960146901
3179.114704268267
3179.114704268267
3091.374690562742
2971.332843678144
2846.92005370838
2786.616893218376
2727.485017402975
2669.757468474307
2691.820330307056
2714.268771339161
2608.870406900386
2520.830946049334
2465.671771699237
2369.926731737059
2313.827731702649
2313.827731702649
2313.827731702649
2259.258240083697
2171.528489123123
2087.205391314036
2058.730465980986
1978.787452884454
1901.948724417968
1828.093737425959
1757.106629590503
1688.876037668688
1631.591641298189
1631.591641298189
1631.591641298189
1631.591641298189
1631.591641298189
1631.591641298189
1631.591641298189
1631.591641298189
1631.591641298189
1631.591641298189
1631.591641298189
1631.591641298189
2977.70150576738
2982.939228482278
2954.598535551267
2880.932335832164
2809.175373434062
2738.348626910582
2735.041632267307
2730.859125298167
2730.859125298167
2730.859125298167
2730.859125298167
2730.859125298167
2624.81653719547
2522.891712029479
2424.924752046789
2371.021020200945
2371.021020200945
2390.161873523198
2331.912083322492
2274.043790672145
2185.739898762154
2093.3704679468
2059.669121028919
1989.337081017594
1989.337081017594
1953.737464673725
1908.554079906782
1908.554079906782
1869.973210788716
1797.359871961472
1727.56619757927
1762.117521530855
1690.064258403931
1690.064258403931
1690.064258403931
1690.064258403931
1690.064258403931
1690.064258403931
1690.064258403931
1690.064258403931
1690.064258403931
1656.925743533266
1638.874911701804
1606.740109511573
1606.740109511573
1606.740109511573
1599.599648331557
3216.526499107278
3189.258902947142
3189.258902947142
3125.068588379314
3116.779121831634
3116.779121831634
3030.759500551707
2913.07141537073
2791.098091870961
2731.977346292525
2674.004919022524
2617.409282817948
2639.039539516722
2661.047815038393
2557.716085196456
2471.402888283661
2417.3252663718
2323.457580134372
2268.458560492793
2268.458560492793
2268.458560492793
2214.959058905586
2128.949499140317
2046.279795405917
2018.363201942143
1939.987698906328
1864.655612174479
1792.248762182313
1722.653558422062
1655.760821243812
1623.29492278805
1599.599648331557
1599.599648331557
1599.599648331557
1599.599648331557
1599.599648331557
1599.599648331557
1599.599648331557
1599.599648331557
1599.599648331557
1599.599648331557
1599.599648331557
1599.599648331557
3032.284315312086
2919.315201732725
2924.450224002233
2896.665230932615
2824.443466502121
2754.093503366728
2684.655516579001
2681.413364967948
2677.312867939379
2677.312867939379
2677.312867939379
2677.312867939379
2677.312867939379
2573.349546270069
2473.423247087725
2377.377207889009
2324.53041196171
2324.53041196171
2343.295954434508
2286.188316982835
2229.454696737397
2142.882253688386
2052.323988183137
2019.283451989136
1950.330471585877
1950.330471585877
1915.428886935025
1871.131450889002
1871.131450889002
1833.307069400702
1797.359871961472
1693.692350567912
1727.56619757927
1656.925743533266
1656.925743533266
1656.925743533266
1656.925743533266
1656.925743533266
1656.925743533266
1656.925743533266
1656.925743533266
1656.925743533266
1656.925743533266
1624.437003463986
1606.740109511573
1606.740109511573
1575.235401481934
1575.235401481934
1575.235401481934
1575.235401481934
3219.640047137046
3153.457352065958
3126.724414654061
3126.724414654061
3063.79273370521
3055.665805717289
3055.665805717289
2971.332843678144
2855.952368010519
2736.370678304864
2678.409163031888
2621.573450022082
2566.087532174459
2587.293666192864
2608.870406900386
2507.56478940829
2422.944008121236
2369.926731737059
2277.899588367031
2223.978980875287
2223.978980875287
2223.978980875287
2171.528489123123
2087.205391314036
2006.156662162664
1978.787452884454
1901.948724417968
1828.093737425959
1757.106629590503
1688.876037668688
1655.760821243812
1591.46561057652
1568.234949344664
1568.234949344664
1568.234949344664
1568.234949344664
1568.234949344664
1568.234949344664
1568.234949344664
1568.234949344664