/*--------------------------------*- C++ -*----------------------------------*\
| =========                 |                                                 |
| \\      /  F ield         | OpenFOAM: The Open Source CFD Toolbox           |
|  \\    /   O peration     | Version:  v1912                                 |
|   \\  /    A nd           | Website:  www.openfoam.com                      |
|    \\/     M anipulation  |                                                 |
\*---------------------------------------------------------------------------*/
FoamFile
{
    version     2.0;
    format      ascii;
    class       volScalarField;
    location    "3000";
    object      rho;
}
// * * * * * * * * * * * * * * * * * * * * * * * * * * * * * * * * * * * * * //

dimensions      [1 -3 0 0 0 0 0];


internalField   nonuniform List<scalar> 
18230
(
0.377971440269908
0.2466999999454932
0.3949002023307099
0.3750612743321536
0.09837554084664936
0.2439306600293945
0.3260933005753684
0.3913515837279791
0.373429567697711
0.3598914853339256
0.104653472225106
0.2430032510599806
0.2095164261449363
0.3257668387970307
0.3898626627323047
0.3720677782778745
0.4032095680814264
0.3620131097988137
0.1111537791750357
0.243212416870916
0.2046149000128552
0.2134835351698488
0.3222707202196427
0.3881821267731168
0.3708943012138343
0.4120002554108161
0.4049923435679708
0.3607593858989249
0.1178836037432137
0.245297888729669
0.4465826693426093
0.2101301597948809
0.2155089018673512
0.3224467276700629
0.3863068533436355
0.3695292036287652
0.4184627960873218
0.4125907556967485
0.403443939925355
0.3620857308335955
0.1248915626791683
0.2484491933478193
0.5587724006239794
0.4468613396754891
0.2138385034407945
0.2177340032385865
0.3218120866199396
0.3850308847551841
0.3683030887177017
0.4269385719354469
0.420012002176035
0.4122241026257093
0.4041321757161542
0.3622654931549484
0.1330387017616798
0.2510453288228172
0.5811185551011024
0.5588036384762378
0.4479758326446166
0.2172731523716455
0.2204169870780698
0.3223717340181737
0.3842538507109912
0.3670660473457704
0.4365816065389074
0.4286203413730792
0.4184670569116647
0.4126231300347096
0.4039358293875038
0.364334152769354
0.1417207933163185
0.2545912874428219
0.5966330385700319
0.5809229201294702
0.5587801157619698
0.4496913330595696
0.2217619621528438
0.2238308565437979
0.3225820267470172
0.3834203674617011
0.3663484392365368
0.447392017471081
0.4382157504007151
0.4269317012587504
0.419514605994629
0.4118935640867936
0.4042192003424423
0.3650059493533125
0.1526177946680019
0.258718225335462
0.6046661378184401
0.5960644166020092
0.5810301128949157
0.5589923905341623
0.4501605665704059
0.2267257281449845
0.2273848927712244
0.3232761646148561
0.3828306247911458
0.3653340574449856
0.4603003646686393
0.4494180223078866
0.4366004723537897
0.4278087544884894
0.4183223731260123
0.4121763214901475
0.4040691731455554
0.3637678581928824
0.1641941337907789
0.263623830598806
0.6098279411051049
0.6041222450114309
0.59592964019304
0.580902818141246
0.5589046325963383
0.4522619245798203
0.2325087117400012
0.2312291375920666
0.3240192215490824
0.3820416864811075
0.3646865713347947
0.4744345449480946
0.4623416852526436
0.4472566685270248
0.4372997431322114
0.4268511785148102
0.4188520697257002
0.4118438929227837
0.4044166802308044
0.3627023295627538
0.1759222930837235
0.2694821032651087
0.6122739831609288
0.6092570333480586
0.6040245631575178
0.5958583180558027
0.5809771422673867
0.5590093260337969
0.4529281158637797
0.2394068179129686
0.2360690016124266
0.3249245477134939
0.3815579502531872
0.3641412729786571
0.4981160342470642
0.4766344182168654
0.4600607558930705
0.4482440684168539
0.4364874993681226
0.4272953054592815
0.4182787833293942
0.4118718113570379
0.4044385013134539
0.3636333123618377
0.187389977346454
0.2756007354186885
0.6124355112909811
0.6116981317363477
0.6091189524069822
0.6039407958631868
0.5958189992068965
0.5810165628764039
0.5592910577266978
0.4547627511728994
0.2468510677020274
0.2417926667027579
0.3272027509089586
0.3809395726464456
0.3633845276991866
0.5534191074453091
0.4998651226694631
0.4739884953587812
0.461055980791916
0.4472183521504208
0.4369539472783646
0.4268294874470505
0.4184640521661918
0.4118670307554093
0.4048755246210435
0.3656011893008594
0.1990623375788359
0.2839000273406247
0.6118401428475996
0.6118940029446686
0.6116166548945925
0.6090414797051508
0.603920828058107
0.5957941492755559
0.5810367937095799
0.5595770739032927
0.4571015410463337
0.2551934039634547
0.2476019602668998
0.3298571663759733
0.3810595889466411
0.3628756122840655
0.6296117518838524
0.5538240271230049
0.4977579648322058
0.4751168233469464
0.4599996636289563
0.447726737927917
0.4363464936356182
0.4269862738730743
0.4183158149555495
0.4118879289341975
0.4050650268239383
0.3685857782482964
0.2113272814361652
0.2933604345597047
0.609827425539776
0.6113194982319016
0.6118302794064104
0.6115402908686822
0.6089829651618985
0.603869471092119
0.595816544330267
0.5811493565697633
0.5597384466172201
0.4592335053682083
0.2646761659133213
0.252829488732583
0.3330979614827553
0.3813391674004083
0.3623631065855261
0.7300459063465981
0.6303000825920854
0.5524353657731033
0.498920507323184
0.4740239361545527
0.4605551761148147
0.447174031902655
0.4366764081556365
0.4268700929823139
0.4184087695189754
0.4120470345866953
0.4055695068545629
0.3714170802204746
0.2238947428921487
0.303935066986654
0.6058204763367666
0.6093582104628367
0.6111911112500562
0.6117692105469046
0.611502018743927
0.6089513019639273
0.6038612577396305
0.5957978985220702
0.5812470876838277
0.5602221072520575
0.4616742140137186
0.2752809484743411
0.2598677644595421
0.3372168121794537
0.3820080545277901
0.3637512565006609
0.7864903611822449
0.7302279188604605
0.629131456663472
0.5528471825557061
0.4974336281791387
0.4747257215269852
0.4598756817761195
0.4474789091231936
0.436379684409231
0.4269757887048545
0.4184815482098236
0.4121000761037334
0.4058485596831762
0.3749318009451558
0.236850661313471
0.3158840958944162
0.5967610882221933
0.6054425075045312
0.6092269875501864
0.6111031379788314
0.6117388804045936
0.6114814930340721
0.6089581101417296
0.6038959436270438
0.5958979772113591
0.5814229756183066
0.5606696585389794
0.4649273328743981
0.2866095031729558
0.2692209571877315
0.342515840570893
0.3831511075324734
0.3678957393789251
0.811025995892435
0.7857660641048562
0.7293667527562995
0.6289023948504916
0.5528940662357155
0.4983900302596895
0.4738135382823517
0.460212191418608
0.4471363091962092
0.4366152806199977
0.4270774136909776
0.4186552919047514
0.4124561283465071
0.4064832557481085
0.378788990803161
0.2500149039359569
0.3287719749386062
0.5828162654788198
0.596680313677584
0.6053031041567711
0.6091973294506826
0.6110582755254257
0.611728060156027
0.6114785233659824
0.6089704098506216
0.6039304923680852
0.5959950934778072
0.5816434955422106
0.5612610017920012
0.4679921155435143
0.2980493146797046
0.2788563374815647
0.3491263203954614
0.3849207875167199
0.3745882887378312
0.8288792640621109
0.8102160930979044
0.7852377639167072
0.7293151853436879
0.6289120338123155
0.552525668381497
0.4973925102039942
0.4743328938160069
0.4597659875382769
0.4473943759125926
0.4365728990292169
0.4272617917420148
0.4188442289424169
0.4125243413424362
0.4068174115291083
0.382983189069044
0.2635260684562312
0.3420518295472937
0.591399732777962
0.5828350241179864
0.5963312444383755
0.6052870380752745
0.6091593469231285
0.6110269521639197
0.6117311202819301
0.6115030473711148
0.6090316382746499
0.6040239146768503
0.596136402577313
0.5819907469712976
0.5620118012620998
0.4724000173635498
0.309580804007341
0.2892691563798996
0.3584533784853748
0.3867686006754377
0.3837124963983692
0.8455863761787735
0.828134880784927
0.8098926982546961
0.7848916747798405
0.7289226458413488
0.6284341542179314
0.5522515913048702
0.4981016741062123
0.473700985608011
0.4600343505357514
0.4472748938474402
0.4368081315105418
0.4274877724843849
0.4191357379133463
0.4130842733179765
0.4075765115915268
0.3869653390075113
0.2769807915565773
0.3560793944589441
0.6064028828316003
0.5918703055264609
0.5828932438445424
0.5964017462467446
0.6053018479761717
0.6091863727917353
0.6110224143821102
0.6117256866174204
0.6115346743615583
0.6091012934605372
0.6041609319054824
0.5963533270472539
0.5823613046226178
0.5628804878997901
0.4765165422365492
0.3219160158867129
0.2997065464068818
0.3729404061013025
0.3913313980382719
0.3952781523747763
0.8605169356842453
0.8448377087444473
0.8276691169965649
0.8095057126248841
0.7844441303417269
0.7287113765430735
0.6289264701707377
0.5522448922966771
0.4972384174824747
0.4741029527218991
0.4597710055173976
0.447576284635243
0.4369812284121807
0.4278176945444323
0.4194909218675443
0.4132384513521691
0.4080889879592256
0.3907681968098514
0.2903064130330464
0.3705988307584871
0.6217021341597213
0.60625252476794
0.5912490146325122
0.5829801792793311
0.5964977855411375
0.6052596297467079
0.6092086213795395
0.611058449766046
0.6118098743994007
0.6116266055702309
0.6092221946805648
0.6043457708340282
0.5966404467983689
0.5829411551460144
0.5639299581746456
0.4817655590067783
0.3347131616933757
0.3094684602061661
0.3915463173853064
0.3979787979983158
0.4100196008850575
0.8744420034946901
0.8597201139820213
0.8443351182331806
0.8273313648596679
0.8091581558535498
0.7841940837026015
0.7282599504225239
0.6281426182355601
0.5522736469161261
0.4979443540672145
0.4737105957773373
0.460055106456692
0.447630081522279
0.4373130548709255
0.4282197755978576
0.4199514158304147
0.4137611981997558
0.4089203791244178
0.3942981971551309
0.3030550424134581
0.3859834768090418
0.6061665718622719
0.6207818212072486
0.6060921129886262
0.591695252773071
0.5830830610909047
0.5964934466707653
0.6054256535194776
0.6092933704929592
0.6111159533259479
0.6118815319395923
0.6117423070022435
0.6093896638089447
0.6045898367747508
0.5970399507886196
0.5835770212143029
0.5652753897634974
0.487030032212783
0.349611678920647
0.316366608806792
0.4134639024189165
0.4063367315570058
0.4275068483583886
0.8886207083481562
0.8737084392194788
0.8592827438959945
0.8439187824261634
0.8268593077658114
0.808645682189866
0.7837069141397609
0.7280852057647756
0.6281821078608345
0.5519654681666145
0.4973083843153864
0.4740447700425821
0.4599238225332404
0.4480318205228714
0.4376457093841709
0.4286897618560227
0.4205841018075523
0.4143756560303229
0.409664569420614
0.3975600588397442
0.3150571898060532
0.4031682845933824
0.5862509602239648
0.6058001852760615
0.6209159663183167
0.6061097429220779
0.5913729991051887
0.5831972889112595
0.5965272007584602
0.6053130775843416
0.6093308529596484
0.611218060748314
0.6120060143768721
0.6118939468956679
0.6096027010674395
0.6049336661696257
0.5975285067301225
0.5844934442567523
0.5667967244778424
0.4936980157230833
0.3688387344232815
0.3220787161010122
0.4356136496988486
0.4162855403320727
0.4468897722926806
0.8997578689986601
0.8873121467575454
0.8733391070065786
0.8589087950536477
0.8435654868708247
0.8264983434143262
0.8081813096289071
0.7832241359890625
0.7274188039005366
0.627911939306199
0.551995810980435
0.4979712192975158
0.4738674420915993
0.4602871604084569
0.4482266832015581
0.438130382131859
0.4293255451343003
0.4214080694539828
0.4151925971842651
0.4106624227291529
0.400598999566232
0.3259184220613917
0.4215153147450438
0.5700516635864126
0.5865522229737909
0.6057928097010766
0.6207502804156604
0.6061954430130292
0.5918198043125553
0.5833489558992633
0.5966857958494286
0.6056709547387493
0.6094742448356725
0.6113489063534692
0.6121843663808416
0.612109355559922
0.6099161869725583
0.6053567657846323
0.5982092857550134
0.5855317409584226
0.5687930370440868
0.4992516141609138
0.3900521335228188
0.3286912039783455
0.4611418144341058
0.4285496111499489
0.4679665141457063
0.9127751741509091
0.8990566358531979
0.8870253664221481
0.8729514012135717
0.8585390277568871
0.843130185277967
0.8260081266306533
0.807728402325064
0.7827314303909516
0.7272859472482437
0.6276823474144793
0.5519607071078289
0.4975157440314201
0.4742537175273905
0.4602684025373654
0.4487178309192637
0.4386920680817342
0.4301379050099385
0.4224754452532606
0.4163007453325254
0.4117924777000606
0.4033887177204193
0.3358920267028624
0.4393696941506667
0.5935039982842822
0.5705973281760022
0.5865166077627109
0.6055738817219178
0.6208010345277748
0.6062140862476976
0.5916474861593738
0.5835227973057233
0.596754207931528
0.6055192464371051
0.60961657628564
0.6115409517308956
0.6124150644870803
0.6123603440286208
0.6102982635576905
0.6059457962991341
0.5990026372913688
0.5869912012013186
0.5710988153369027
0.5061020372314697
0.408973638346246
0.3367939757219285
0.4892062710110509
0.4432111634904398
0.4917473007369304
0.923044211090438
0.9114339090436943
0.8987324541253174
0.8865803015002559
0.8725545061598399
0.8581028559111658
0.8426938899637201
0.8255104785438276
0.8072312165447585
0.7821354493528641
0.7266982881694433
0.6275089147317591
0.5520114472810662
0.4982761879319202
0.4742283341723463
0.4606967621869414
0.4491353779582234
0.4394727068128607
0.4311524099047233
0.4238733263957175
0.4176817760669043
0.4131775037503219
0.405955356695568
0.3456514097987953
0.4564258494793224
0.6220610416094954
0.5948942997900483
0.5709210568626004
0.5868050412441519
0.6056442057770396
0.6208435926441895
0.6062787635814968
0.5920469244377224
0.5837303259402614
0.5969554790516871
0.606038287716434
0.6098833058805773
0.6117800967744028
0.6127345724521838
0.6127156118097583
0.610818106229189
0.6066404735497132
0.6001723808380356
0.5886847213155633
0.5741364456752175
0.5128040189065233
0.4249120920222034
0.3459628786856724
0.5184027722516715
0.4598525679075666
0.5159833526155374
0.9328680212364888
0.9219008256666876
0.9108913792813643
0.8982706368369444
0.8861244662654669
0.8721114717118308
0.8576369895165158
0.8421492300378061
0.8249668708399319
0.8066129881071938
0.7815852836773826
0.7263175071100442
0.6273947441600397
0.5520109809051207
0.4979506437857257
0.4746253979037224
0.460932398824993
0.4498521622856156
0.4404191807486927
0.4324838338733711
0.425589945901776
0.4194974057968002
0.414818792074965
0.4083414813083758
0.3546099743669826
0.4730456748506528
0.650221755077633
0.6220707929483271
0.5948069481072883
0.5712134165464398
0.5870759658695399
0.6058128420348019
0.6208800462475292
0.6064454451837025
0.5919320185737268
0.5839729684645855
0.5971375658903845
0.6058826763431988
0.6100776567694172
0.6121093775970801
0.6131277912181904
0.6132064275578785
0.6114946104968592
0.6076502456703645
0.6015335725795833
0.5910636485436572
0.577699090936708
0.5215840213637911
0.4394655781095291
0.3569491744390209
0.5457358817583658
0.4771223179642814
0.5399557067311628
0.9432093886952033
0.931766562391161
0.9212617777712194
0.9103442322377863
0.8978361919873338
0.885605097023487
0.871626914635622
0.8571597638488356
0.8416212448194523
0.8243908843267492
0.8060478180336408
0.7809249198342796
0.7257784119599329
0.62733138229423
0.5522478390489155
0.4987567739549061
0.4748348820922288
0.4614796398866829
0.4506636499215044
0.441673310418942
0.4341108267555226
0.4277489904918919
0.4217521547990008
0.4168450736752182
0.4107608940811699
0.362650407223713
0.490317148900616
0.5403908660657747
0.6501793480385839
0.6222639948047071
0.59490883683777
0.5715561850936559
0.5873020356654517
0.6059311451468136
0.6210464407469353
0.6066001650965344
0.5924630175522517
0.5842671838679603
0.5974063945568195
0.6066771483024436
0.6105230662698566
0.6125124552756982
0.6136530103126296
0.61382646916591
0.6123753119453976
0.6088630300990471
0.603519947595062
0.5938895015905746
0.5821045562810258
0.5315424135935051
0.4541468635424815
0.3700978468807599
0.5751491319010816
0.4959304259009982
0.5613562254092693
0.9518856986093724
0.9420017050077647
0.9311110099088781
0.9207910238782825
0.9098084861309554
0.8973635271215614
0.8851391695221729
0.8710712269263817
0.8565792290764084
0.8410662375364465
0.8237549074521224
0.8053744838336204
0.7803005521309895
0.7252643132143028
0.6272056678489351
0.5523797620985179
0.4988548266467685
0.4754005891360785
0.4621135116948243
0.4517670949390906
0.4431939238965772
0.4361614423185202
0.4302831355592642
0.4244553391696089
0.4193395236606821
0.4133495953269421
0.3698731673142134
0.509221484646559
0.4140669724026321
0.540194958597935
0.6501722067028504
0.6224349133881687
0.5954576108052981
0.5719202012475206
0.5876568258129031
0.6063180769592963
0.6211005855757586
0.6068185953699132
0.5924240075028377
0.5846148443081073
0.5977125109027489
0.6064862057683634
0.6108572262476175
0.6130511673845224
0.6142932393956957
0.614690531292023
0.6135080448066366
0.6105998364421231
0.6059294413269181
0.5974892952659744
0.5872331877152661
0.5425749426953778
0.4689729920422771
0.3856785988812809
0.5999994686196578
0.5127887663838337
0.5732858024662022
0.9609938912269889
0.9506311767179368
0.9413232960665673
0.930528879431662
0.9202029407712721
0.9092523293283205
0.8967654868034233
0.8845297306909662
0.8704714009463683
0.8559356001599547
0.8403909806399472
0.8230918117172552
0.8046410839575374
0.7795502212137421
0.7247363586764751
0.6272325622444551
0.5527426193734432
0.4996424776229099
0.4760642025449836
0.4630389259985669
0.4530946962745672
0.4451164427769553
0.4385608213168626
0.433184055308218
0.4277293546846704
0.4222579415227858
0.4162112468318274
0.3765339193236577
0.5260604565320396
0.4118631886064626
0.4175735260538546
0.5404772755812718
0.6502348530115042
0.6226416736357878
0.5955618289135542
0.5723382332217656
0.5880177240064889
0.6064643146913082
0.6216802804432978
0.6071017028456895
0.5930748009955147
0.5850385864843954
0.5981109846925208
0.6076282399118018
0.6115955489463418
0.6136932668206271
0.6151748769414412
0.6157823947862641
0.6150764682594484
0.6127593272782744
0.6090080929456337
0.601849738544225
0.5927992310989048
0.553495286621152
0.4832154740032634
0.4029909100022439
0.6279680433792756
0.5294736196677026
0.5733180307210914
0.9689753535859057
0.9596871675669291
0.9499649731241334
0.9408387719605394
0.9300316793242256
0.9195715304042787
0.9086128077524726
0.8961616066658838
0.8838947396133837
0.8698041427532146
0.8552740624156027
0.8396830769022062
0.8223689976890012
0.8038864836909364
0.7787531560136943
0.7242358083973385
0.6273406604133485
0.5532015169635256
0.5003643553610261
0.4770590187778899
0.4641974586381753
0.4547986858257575
0.4473357134829974
0.4413200253134886
0.4365006166228698
0.4315025688156486
0.4257073402049064
0.4196368043925557
0.3835083496539298
0.5374447353339061
0.4392343387212355
0.4150432273940459
0.4183736935812337
0.5409062336089591
0.650433370439406
0.6229835142244344
0.5961710910759183
0.5728104547545737
0.5884441971738243
0.6072027373215293
0.62176587741668
0.6074526688447349
0.5931839455627497
0.585542108603342
0.5985851964925029
0.6074996866096396
0.6120609774223595
0.6145917613199628
0.6162818891732101
0.6172468094832895
0.6170859447003824
0.6154920547996233
0.6128299816257605
0.6065423288111814
0.597947856881347
0.5634540710256063
0.4954750327214988
0.4216165861381574
0.6284038639667646
0.5230250473591306
0.5687349467069337
0.5900385529421629
0.9773003465312259
0.9676130440428576
0.9590028349099351
0.9493963998871052
0.9402142725946743
0.929434551400726
0.9190271571604647
0.9079874047062895
0.8954875200089464
0.8832108556023246
0.8690963533793881
0.8545316144151988
0.8388997769190376
0.8215595008728886
0.8030621884885908
0.7779307568188746
0.7236170413925769
0.6274838729056221
0.5538224203409488
0.5015314962036971
0.4783185968964985
0.4657556898496603
0.4567694243376224
0.4498878922202258
0.4445104431792515
0.4401673813002408
0.4357732954293895
0.4298150208888661
0.4236644034841474
0.3853509237848654
0.4474859406531976
0.4667897936498938
0.4397205999383434
0.4152472629140322
0.4201993035755668
0.5408941842278688
0.6507034176490212
0.6234222454978323
0.596551031364452
0.5733664539219254
0.5889949951804303
0.6072672962046162
0.6220599027787131
0.6079227962280204
0.5940089155518919
0.5861654043078107
0.5991948371614879
0.6089054506184081
0.6130761114049401
0.6157132107241611
0.6177405947297601
0.6191532843736449
0.6195980528446079
0.6189061093924983
0.6168823531222362
0.6109614275956763
0.6023669887100686
0.5711624193889431
0.5054107154414116
0.4417108304010776
0.6164082708426738
0.5475212976555008
0.5656566418711906
0.6018153814155811
0.98467200285387
0.9757905710340329
0.9668877312533679
0.9583921514951261
0.948806459317633
0.9396587268448388
0.9288267480251267
0.9183243379413218
0.9072544468688698
0.8947654488728115
0.8824767535010505
0.8683272048114701
0.8537369724916277
0.838082355346521
0.8207025365183422
0.8021590340332668
0.7770278795789449
0.7231155452744343
0.6278345440982231
0.5547027325953219
0.5029707521588832
0.4800014173152414
0.4676155122748524
0.4590841246600165
0.452850537289061
0.4480867396664898
0.4443660159577821
0.4403994322300239
0.4344916967874209
0.4272407344821232
0.4062701901581148
0.438022231921802
0.4908915994939914
0.467306488404771
0.4395725081141669
0.4153964449628719
0.4225664018003615
0.5416797963396515
0.6509681518635776
0.6237892520046321
0.5972966423137633
0.5740236498230203
0.5896293290463924
0.6085555316915555
0.6223918746051142
0.6084924456296413
0.594386393715166
0.5869171737288184
0.5999744761204151
0.6092879946602309
0.6141970435216052
0.6171713160225751
0.61966495564647
0.621504041785473
0.6227381735485331
0.6224664562793916
0.62049626792288
0.6145386819164544
0.6058998733683456
0.5778256445862294
0.5142735015771931
0.4569660194410473
0.6035471898970065
0.5706963235069521
0.5553447617683468
0.5788180848052512
0.5925681211190289
0.5451417772905631
0.6264767372184097
0.9918975822099867
0.9826718097942181
0.9750909022146257
0.9662822542892525
0.9577687020588289
0.9481619413888122
0.938994514647477
0.9281466671705462
0.9176538907442469
0.9065470818896862
0.8940292756616819
0.8816860824148977
0.8674918757140139
0.8528826951425345
0.8371745824051008
0.8197777845040911
0.8012084990704156
0.7760940814986174
0.7225697775956218
0.6282948785675888
0.5558509752930783
0.5048733730280107
0.4820186709211742
0.4698759476946656
0.461857745963716
0.4562841062621033
0.4522843543916551
0.4489540197208644
0.4455414090249572
0.4390711506017734
0.4328909996916178
0.4152081382583808
0.4211243077902915
0.5060794934499362
0.4912940965054973
0.4672550276414659
0.4395086976888699
0.4154248178023726
0.4248927228603273
0.542042388296335
0.6515169125356708
0.6245245937830938
0.5978520071168114
0.5748157456235335
0.5903773791074292
0.6087616175583448
0.6228742599028296
0.6092405545607252
0.5952794250197629
0.5878721154082966
0.6009134079698235
0.6104379764605761
0.6156678756732343
0.619089596749639
0.621994497022385
0.6244209833881372
0.6259276181118035
0.62550274508452
0.6231271384850038
0.6172624448661932
0.6094380623236322
0.5832798158411159
0.5095235438501036
0.4533379527298026
0.4994910664096948
0.6094685076080469
0.5890881319676324
0.5914332255010883
0.5762468830332419
0.6151547781855
0.5657574217306152
0.6327342217120262
0.9983477136074419
0.9898231460732472
0.9823741172267525
0.9744173141081907
0.9656606105943188
0.9571476418313967
0.9474965087305561
0.9382995828469654
0.9274163731245969
0.9168839379156695
0.9057192228842836
0.8931735535230235
0.880828561982795
0.8666059275243786
0.8519458518128037
0.8362299922582723
0.818783735879548
0.800174203372527
0.7750794674100328
0.7220644675306807
0.6290158028982357
0.5573873404292999
0.5071202338673552
0.4844805972251116
0.4726774392348974
0.4652360117164198
0.4604619546193543
0.4569344384098197
0.4542427656643473
0.4493939422304848
0.437855427470955
0.4473856521577967
0.4332239922843824
0.4121292639891447
0.4180093191458439
0.520596417124483
0.5063058653431276
0.4912611441040678
0.4675714974730827
0.4397312777242212
0.4155500576508179
0.4293271789192819
0.5432997719645519
0.6521729235535515
0.625220014929613
0.59907064372518
0.5757499841919557
0.591274150282767
0.6104249431594748
0.6235252081978953
0.6101879217667983
0.596307099204999
0.5890491404395281
0.602154414626643
0.6119052390307613
0.6175896452346806
0.6213855105288496
0.6248634637929461
0.6272927409204104
0.6284762792991442
0.6274717051136347
0.6249137181383515
0.6199517832226764
0.6123714304038428
0.5885613842269546
0.5374909136589845
0.4736022006805441
0.5017261104025729
0.6364026946793792
0.6040282510941331
0.555474366828427
0.5913859852568669
0.6085215591859904
0.5844348403759506
0.6335285005342052
0.4911309132368847
0.6119161746924382
1.004979910876212
0.9969050370510851
0.9895568193956293
0.9816361719789474
0.9738194864562143
0.9650163804339611
0.9564878875475977
0.9467898049994443
0.9375459813390821
0.9266467198065412
0.9160999213328442
0.9049090707715287
0.8922947178331886
0.8798977112232204
0.8656283198868666
0.8509367766057003
0.8351724976834365
0.8177345043677031
0.7990940473550621
0.774026623544702
0.7216076421282207
0.629997853924073
0.5592239393232681
0.5100239843659132
0.4875165313342065
0.4761886907356722
0.4694994113107328
0.4652285067188926
0.4625589308913986
0.4579151470569588
0.4558011193206556
0.4436265687917809
0.4530798066325403
0.4381080673469414
0.4197645820677129
0.416725841298078
0.5357388880719405
0.5208628052471299
0.5063499130190813
0.4913314459930756
0.4674566733244897
0.4395686041522046
0.4155923781154721
0.4334974116841458
0.5450243450314991
0.6531740799701075
0.6263952527767656
0.5994108592659544
0.5769235330128463
0.5923979478593815
0.6109753732634143
0.624468498766574
0.6113970203019037
0.5976632803669587
0.5905451960136265
0.6036849616479359
0.6138733924066712
0.6198876416130528
0.6241932442374816
0.6276108458536818
0.6294953016336432
0.6297897756341532
0.628601807959895
0.626551643589585
0.6226199233802817
0.6144631827609963
0.5825653570565669
0.6027807516172938
0.5273450675676761
0.498224799449267
0.4692493299749962
0.6336355177830897
0.6220187890128144
0.5618043391463073
0.5873896398753109
0.6111386001662367
0.5739773788956924
0.6385445328671904
0.5471272734898898
0.6145926732901607
1.012594134308032
1.00393251735116
0.9961687193913206
0.988792421352472
0.9809871828560326
0.97308651350955
0.9642911898234215
0.9557345182660505
0.9460150326470825
0.9367447094254348
0.9258095514460467
0.915192851698872
0.903973686705338
0.8913371126545692
0.8788945012224475
0.8645976145228227
0.849869218810493
0.8340867424135338
0.8166052294053052
0.7979417671104621
0.7729283546090644
0.7211699987584925
0.6311659800737673
0.5614573404162667
0.5133831245873111
0.4913585069466825
0.4806725538879911
0.4744078196539196
0.4712793682792429
0.4668529131029672
0.4645490014881202
0.4597464247347636
0.442752446479623
0.4518980778595155
0.4590689356046327
0.4400039767888628
0.4157959357950239
0.4373084357638494
0.4159339367127567
0.5511238657935636
0.535837762184086
0.5208270300540574
0.5063890035530051
0.4913367873426601
0.4676587414380589
0.4397371326814454
0.41566780968623
0.438773602080079
0.5471193483114615
0.6546031956732167
0.6277784160377753
0.6009172019800254
0.5783441010923819
0.5937714181393923
0.6129976954190509
0.6257501793355157
0.6130157889978993
0.5993994422859997
0.5924350849326773
0.605727637009435
0.6161934145330376
0.6226488471419345
0.6268446571583036
0.6295483775454943
0.6304772950152447
0.6302952938934391
0.6294793016257251
0.6281160512464063
0.6245416123837725
0.6202013996717372
0.5958403172946048
0.6047149897086144
0.5386064457400435
0.5182581975169859
0.4752699380526322
0.6381321187110456
0.6078161088858332
0.5056924596280477
0.6190761940476489
0.579050750358529
0.5968541215341723
0.6355393021618954
0.6277543840437484
0.5015701804247835
1.018571875586695
1.01059111306022
1.003247986905907
0.9955491968310819
0.9881732123059567
0.9802978964991642
0.9724094874289931
0.9635608223914436
0.9549477890525774
0.9452090142747183
0.9358923296363257
0.9249490097770483
0.9142835607935871
0.9030042214990394
0.8903128852931018
0.8778336411236576
0.863488929467464
0.8487266964319023
0.8329030340250586
0.8154147266485395
0.7967294113654501
0.7718144530712249
0.7208568049283888
0.6327069427470916
0.5642829597075375
0.5175659546227609
0.4962108836937146
0.4860501821157811
0.4811606689243609
0.4762200518652046
0.4666626309311404
0.4742158240792649
0.4678774650939428
0.4669257681396348
0.4478702247044773
0.4563730618379112
0.4630643203943336
0.4457152397812365
0.424646172799751
0.444087615049326
0.4161592576319338
0.5662704678376342
0.5512429755631162
0.5358749400741802
0.5208678930022239
0.506405092584102
0.4914331420000194
0.4677027948211175
0.4396939479203893
0.4155965798716339
0.4433943093582215
0.5505913706693275
0.6562600977338744
0.6296423862905559
0.6025465866407346
0.580143006049112
0.5955198305187377
0.6147434463064405
0.6275677132340149
0.6151376775460171
0.6016428687993127
0.594889582807075
0.6080885304421652
0.6189073824070799
0.6251513269026842
0.6286782470876947
0.6301939633118053
0.6306389985434938
0.6304794606959496
0.6301542104162799
0.6296922706244577
0.6242134702195606
0.6285559113863313
0.6206287711534709
0.5986727355350264
0.6132425427755294
0.5746777086522501
0.5261363006726933
0.5117339118681965
0.6429677437830179
0.633733507931137
0.4965121441768771
0.6212282804367621
0.5743870966793527
0.5951456530259888
0.640628359167835
0.6241819806675738
0.4939821847362378
1.024636782905715
1.016752903236079
1.009886651364006
1.002674964259727
0.9949265791036512
0.9874271166083854
0.979538377458576
0.9716113738635832
0.9627295527193344
0.9540925370311862
0.9443160859944361
0.9349635726377493
0.923970125572902
0.9132718595559766
0.9019536514775868
0.8892263268140403
0.8766948493468412
0.8623212371773897
0.8475208037756233
0.8316699691191702
0.8141521035165519
0.7954525923287861
0.7706322306002512
0.7206262910573881
0.6346728192846244
0.567699513978127
0.5227254106491537
0.5021071281134371
0.4934255855774666
0.4848902522807009
0.4827151279265481
0.4715630308111097
0.4762793898670366
0.4720911010558142
0.4674488355803141
0.4547849948968255
0.4627773849793448
0.4648300025093521
0.4502310877950411
0.4423533113865505
0.4214163718617396
0.4500159426647227
0.4324050854172144
0.5828846764458061
0.5663852648362108
0.5512999828720276
0.5358368827575077