/*--------------------------------*- C++ -*----------------------------------*\
| =========                 |                                                 |
| \\      /  F ield         | OpenFOAM: The Open Source CFD Toolbox           |
|  \\    /   O peration     | Version:  v1912                                 |
|   \\  /    A nd           | Website:  www.openfoam.com                      |
|    \\/     M anipulation  |                                                 |
\*---------------------------------------------------------------------------*/
FoamFile
{
    version     2.0;
    format      ascii;
    class       volScalarField;
    location    "3000";
    object      T;
}
// * * * * * * * * * * * * * * * * * * * * * * * * * * * * * * * * * * * * * //

dimensions      [0 0 0 1 0 0 0];


internalField   nonuniform List<scalar> 
18230
(
265.8509780861876
268.41568002193
270.1013112398479
267.9227757934888
193.2845025214402
273.586011814106
261.3434025297601
272.2338643894739
269.0419458067489
166.5049818870253
190.8993507490446
275.0875795642463
237.7591850418995
264.1553040566461
273.3388518890304
269.9817351124712
189.0224418853085
167.1036749848566
186.2220629352527
275.1285471702744
172.3110222775434
236.8506144594705
265.4661062367102
274.442924048415
270.9229570260111
190.6870010950568
188.9708160733574
167.2513908365649
182.3440345137178
274.2701257054277
213.7323851288216
172.3402328561833
236.2217660638295
266.4113543800573
275.6363956354081
271.8610625664074
191.866685846294
190.4764408529863
189.0062404740401
168.1933897210161
178.0584763060455
273.1601569140062
235.1878446723383
213.6609707701355
172.8103249265154
236.0682048913521
267.0245196623715
276.474413312395
272.7921488157295
193.4061240324112
191.7323985506173
190.6731238930806
189.152741144585
169.0620619825797
173.735950014441
272.3085869100636
238.9803331632103
235.2639905424434
214.0610542110423
173.3078360209832
235.3430079405171
267.5601086869114
277.0308022268652
273.7591893583619
195.1299503673953
193.2926947248818
191.8698116260143
190.7308351466848
189.3396862411781
169.5292984010707
169.736969269982
271.2378429559033
241.2071868055092
239.000901890159
235.2614573366825
214.5296077650427
174.0232114815383
234.7915467403269
267.8073020444789
277.3547091607537
274.7914991947695
197.0305560703078
195.0034495535281
193.411081385527
191.9771845462371
190.8891993658621
189.5032917178868
170.8349601645876
164.6426610344493
269.6455236390399
242.6173127996969
241.4427290732036
239.0607313321773
235.3532733168013
214.6232351822445
174.8332181456946
234.3412049351806
267.8179491383759
277.6617365841715
275.7653217200381
199.2464475454181
196.9370533617359
195.1670986877896
193.5190712763127
192.0913569748968
190.9987506151099
189.6547789161566
173.2827258097188
160.960871227764
267.511496175533
243.4684549891095
242.8174402625139
241.4860562379619
239.0685679839334
235.3122713686101
215.1083912520605
175.6830514398947
233.8326790699197
267.5879568703836
277.9536079446926
276.4794799900696
201.585971364632
199.1748053739387
197.0655362366377
195.2324027352161
193.6383901453357
192.2123509279053
191.1522066718852
189.8598260122709
175.7826853112454
159.0782894459272
265.0808027224948
243.9583971584623
243.6856062134229
242.86703640157
241.5169228474163
239.0984296298946
235.3258084881475
215.2686282593811
176.6895527192868
232.5378200713454
267.3237230933402
278.1967970732404
277.0864228340892
205.2880897309682
201.5704718946114
199.3018255788149
197.1567893350774
195.3691089421278
193.7581807484187
192.3449962223336
191.2781352486796
190.0253742304257
177.7218572219004
158.4735635525659
261.9974117934291
244.0647748527045
244.1652757350624
243.7399156696258
242.8942285923035
241.5364643091034
239.1200665707576
235.4074313288866
215.6765548781219
177.8181892513991
231.1881337778289
266.8497357122649
278.4065164485626
277.8631860105552
213.6777412247145
205.3677569573929
201.663461008416
199.3895882452554
197.2808268911718
195.4889735578266
193.9008886958204
192.4775689170751
191.4413097168588
190.2486311024182
179.4531798700198
158.6558858503302
258.6680216846657
244.0361926213111
244.2592182516481
244.2136595206276
243.769800126671
242.9173213398397
241.5484427044271
239.1196861913084
235.4363807703091
216.2351146255753
178.99128914766
229.2754946986414
266.2608849711833
278.6100021759419
278.9276918453486
225.1253641079138
213.8637594856559
205.4955232981896
201.7581349783342
199.5071237031559
197.3943965476127
195.6170946741015
194.0301908883052
192.6347990808522
191.591648705252
190.441241436259
181.076643356846
159.369973818955
255.1861516114014
243.9590914535837
244.2384318925307
244.3015580282008
244.235541092727
243.7849406150941
242.9219137631458
241.5548664707411
239.1308948682017
235.417627745736
216.7324691483374
180.3099924322628
227.0837053251872
265.7422413555154
278.7844310483962
280.502048584201
239.1828018001977
225.2266687542618
213.9257903829771
205.587878725535
201.87682567718
199.614001056747
197.5414874030636
195.7629160539566
194.1976806453254
192.7832860161779
191.7691584602452
190.6933125515847
182.7285603347885
160.5676620289391
251.1919571721027
243.4950173339135
244.1522542162754
244.291209616828
244.3223379594823
244.2488748772734
243.7905935776643
242.919929848919
241.5394687583113
239.1220404543772
235.4633581628589
217.2685439277681
181.7667868445672
224.439476514037
265.118917916576
278.9532891757514
281.407142801035
245.7861485034636
239.2354370800868
225.3600189230626
214.0646815144323
205.6525055195822
201.9882924221325
199.7581854617269
197.6719513316911
195.9195755556893
194.3480015856493
192.9624450766491
191.9548513575895
190.9272652619743
184.3750822295506
162.2911499560036
246.5861433622937
242.4749035122018
243.6592972051099
244.1925198759182
244.3186764768917
244.3328097862431
244.2514050180297
243.7890935040725
242.9118859388607
241.530353252179
239.1061064770001
235.4740681926342
217.9349536858989
183.4486403398581
221.4957522082539
264.682383742167
279.2215848677834
281.155123347702
248.8210284248098
246.0749689231258
239.3835247596491
225.4045218019588
214.1959891091803
205.7916903856033
202.1110024511377
199.8786832630922
197.8331616812557
196.0799361683647
194.5379085838421
193.1544343013373
192.1828248698472
191.2420539606993
185.662259017188
164.2496782648515
241.6951886886838
240.93611131274
242.6032632678164
243.6918690866841
244.2097465309555
244.3383022446409
244.3346309381861
244.2451006309173
243.7718890531826
242.8873184600144
241.4996375574944
239.0770508974605
235.4715943770353
218.5780277946814
185.5816695286346
218.2125853609313
264.5107156769068
279.5100969103291
280.2061079316114
250.9328879910413
249.0358710932688
246.1770502426108
239.4966780181834
225.556323345317
214.2883707532683
205.9159029222866
202.2446461221703
200.0385458289859
197.9879690915259
196.2617128333249
194.732915794387
193.3761933219605
192.4154715205395
191.5224893255685
186.8273455234293
166.4299012324924
236.6024989553575
242.4030397463804
240.9298501180977
242.603317514093
243.7094335702663
244.2132822925494
244.3446236534946
244.3311758094416
244.2303978051457
243.7486052200051
242.8507056066908
241.4535535977257
239.0374896305353
235.4774830654078
219.3039974331001
188.1674533350315
214.327118536443
264.0398403842443
279.5777878345341
278.6601396121285
252.8624300821461
251.1575201534484
249.1734054516289
246.2833327466473
239.5890201058507
225.6071596453471
214.4029456034926
206.0613042346228
202.3949225254686
200.1823103831591
198.1745789146238
196.4567761799964
194.965654479383
193.6255240973949
192.7184290945339
191.9108229020495
187.9318754979297
168.6961406882284
231.6032187843975
244.9002350668724
242.4303021928599
240.9081752367272
242.5999220084901
243.7122990159007
244.2074670511113
244.34094383594
244.3198079109
244.2028671361741
243.7058180996468
242.8025529199241
241.3889093156335
238.9727566235081
235.4494396865763
219.9254522593964
191.0966182173868
210.3851606573324
262.1243927032845
279.1967510404968
276.7400189520978
254.5807249022302
253.0878123512669
251.2975639099066
249.2834862192496
246.3875712072415
239.7083268428734
225.8386348768651
214.5635366575099
206.2030963868217
202.5473625442427
200.365029829086
198.3694074704622
196.6919067177828
195.223146944578
193.9197276830618
193.0150185674068
192.2750612115619
188.9881538616897
171.0376750132266
226.8840717707234
247.3047863914461
245.0080123785204
242.4259173684006
240.8714744507326
242.6045069059971
243.7088995292653
244.1948651063539
244.3223817843693
244.2981423815588
244.1636891441684
243.6520241862248
242.7310759738991
241.3080939535322
238.8942511798501
235.4124120408871
220.5187870103655
194.2211293626997
207.0292160727064
259.6079742030198
278.332580969852
274.6529731454431
256.129574157732
254.8040321269476
253.2320219715904
251.4170713034958
249.4084243605594
246.5298051490511
239.8152562416502
225.8984659538635
214.74014373953
206.3807159816277
202.7315058836266
200.545670987127
198.6017154397423
196.9425626264144
195.5300169137683
194.25262858357
193.3710312627015
192.7076034101396
190.0075158254045
173.3626218888022
222.7350401570575
247.4446301614032
247.4472575812534
245.0205299395234
242.4047950474282
240.8323496898524
242.5721508369842
243.6940431041527
244.1670891103421
244.2927694236361
244.2617422496359
244.1094130794108
243.5797491273977
242.6400302530891
241.1968173071903
238.7836173655244
235.353501319724
221.0962265790839
197.1850684922807
205.2328344494161
257.2020863838862
277.6343433121293
272.5254227617236
257.4035632717026
256.33826138531
254.9425447915356
253.3411834069296
251.5280944277399
249.5307889793391
246.6566250063912
239.9821964280804
226.0997474496582
214.8740509666294
206.5675383691463
202.9117215961924
200.7625736712565
198.8541893880348
197.251030737706
195.8666366469438
194.6415459264934
193.7718729488867
193.1789610025457
190.9628535397269
175.6646669072642
219.503991730727
245.3790313166728
247.5848292799962
247.4774046377214
245.0141779297688
242.3744489833923
240.7830103350652
242.5377433221293
243.6645455996776
244.1300484407637
244.2459750508077
244.2058425371339
244.0343264861047
243.4839933074044
242.5177380594246
241.0586196723685
238.6447160619679
235.2622369205011
221.7666335269589
198.1914654221559
203.9955554861651
255.0815551562414
277.0701327622139
270.4929171463455
258.8106209403398
257.7193249290038
256.443197927537
255.0529538275145
253.4636262626111
251.6637549886419
249.6720049499879
246.8063215640371
240.0937539790933
226.2745178381272
215.0934199126625
206.7788818050097
203.1393130115029
201.0010243460743
199.1549215446903
197.5829769580407
196.2616564797846
195.0811309379878
194.211618838237
193.6507648434435
191.8533186198813
177.9180005198785
217.2125932072973
243.7379838936409
245.3193942123175
247.5775241406331
247.4697504604923
245.0158369940831
242.3510041086562
240.7265950494335
242.5009672211198
243.6300055544749
244.0754069993517
244.1843518986682
244.1279171804632
243.9413863237947
243.3572947187068
242.3643371877465
240.8803792669005
238.4645707404061
235.1264382810041
222.5686038612558
198.0279888789348
202.7515451729201
252.9039631290027
276.4814271905727
268.5447365744172
259.724345656196
258.9804719869817
257.8676391681719
256.5547198961265
255.1724386062857
253.5906227464106
251.7972955609879
249.8268151270458
246.966112714532
240.304430358924
226.4621601143905
215.3022359163545
207.0021962062591
203.3739319449372
201.2805102165444
199.4807678588178
197.9748512927411
196.6995375200659
195.5792560373781
194.7057902727266
194.1433363784585
192.6813627083095
180.1442909391847
215.7038196456314
246.7548641092504
243.5112147486001
245.2300787441771
247.53351740505
247.460412846677
244.9844366133027
242.310848435642
240.6546836922827
242.4365420934149
243.5724054636574
244.0097463399146
244.0997581506358
244.025524703021
243.8233728310899
243.1957522986268
242.1706748542944
240.6573981155046
238.2282903493014
234.9446485654759
223.6765925433641
198.3539944603836
201.7114814360361
250.6959035190673
275.8305105350544
266.6806548010375
260.8809811713553
260.0814048728766
259.119553113497
257.9941885074197
256.6772580409839
255.2886771450742
253.7299909294239
251.9479056012731
249.9910210625042
247.136277642425
240.4698389908947
226.6687726330694
215.5402391723734
207.2747237410065
203.6678155821071
201.5904813975372
199.8578627457596
198.4062948498211
197.1913351720024
196.1320609356626
195.2550074315471
194.6823266326575
193.4815594338893
182.2246851479815
214.9921840348403
251.1079449110956
246.5541080011596
243.3719791917111
245.1478079798988
247.4829683110035
247.4400203463775
244.9461228754008
242.2468530495656
240.5743901261648
242.3650486120264
243.499674594773
243.9188264895762
243.9939157805903
243.8897000989757
243.6729812672745
242.9946895223736
241.9277271446012
240.373425726596
237.9245152072127
234.6838002086409
224.7085203775289
199.6740874392627
201.6091309088909
248.754091342321
275.05913331524
264.8205188139234
261.9013791176307
261.2026842580942
260.2645686092124
259.2272571773987
258.122829743028
256.8055922065483
255.4188854306772
253.8737602140413
252.1112876168008
250.1556854003842
247.3294558442329
240.6828396215595
226.9203363510746
215.7976008570839
207.5605410029041
203.9674311284953
201.9441650046074
200.2775355307338
198.8905318823939
197.7355108927343
196.7455952393071
195.8832011529199
195.3012229848851
194.2794009659317
184.1556577835543
215.1028590998968
254.3008841517601
251.1257552479866
246.4378570554813
243.2417154195063
245.0543942686533
247.4107094557226
247.4202641864561
244.9083603831987
242.1851240730526
240.4749699385239
242.2709623935808
243.4038312966719
243.8009112588064
243.8523066638968
243.7181066472576
243.4671536273707
242.7410324780694
241.6161565758231
240.0101667833306
237.5218667638263
234.3354698811117
225.5178941655525
201.3553094890968
202.1108495763485
247.2907409781187
274.3170632065784
262.9326100291655
262.8617854166054
262.2146375933049
261.3789536004932
260.4120711321912
259.359626770012
258.2568859446448
256.9463410530236
255.5726356308059
254.0368235775459
252.2839323687893
250.3486808763463
247.5269476683714
240.8991090960676
227.196217717724
216.1157041858337
207.9104504720396
204.3316659194338
202.3346390246281
200.741273967371
199.4238664176826
198.3327136218042
197.4360203484088
196.6264059292596
196.0378025790958
195.1114529781252
185.9502215677225
216.1342334437715
243.9213165050114
254.3961869343521
251.0188376047394
246.2965744746933
243.1084172228076
244.9240508049538
247.3249016997424
247.3847551672384
244.8448654999403
242.1023333793619
240.3604941909425
242.1537905433954
243.284846958872
243.6579205340858
243.6775278848798
243.4986653554244
243.2017321781134
242.4063338308309
241.2187519577587
239.5357158841526
237.0086634252518
233.8836939488241
225.9433890101088
203.1217503303963
203.2064976491517
246.2615609110308
273.4873588005295
260.7414241653408
263.7196587264328
263.1955809465356
262.3951176193963
261.5310903748503
260.5647510824136
259.506413821675
258.4113217670593
257.1078392897872
255.7346007133485
254.2164784225401
252.4694370582966
250.5478514297255
247.751092023239
241.1347909052027
227.4864568660341
216.4402099030073
208.2762559651546
204.7241855577382
202.7710987303118
201.2510219754813
200.002846443419
199.0004639098596
198.2317147021112
197.4993559906457
196.8996836024003
196.0006210234511
187.6273850543512
217.916264510626
223.8215434940801
244.0006623125026
254.3243243236238
250.9475692682022
246.2080409247003
242.9551856391818
244.7924106967717
247.2049806416284
247.3454496194362
244.7622675723994
241.9985706715052
240.2191167700128
242.0112098806991
243.1262322632307
243.4650719894175
243.4493032608603
243.2254761731815
242.8512020186099
241.983394328858
240.6974835523137
238.9359413708292
236.3754650828394
233.2750040459821
226.1674070812312
204.8891537850455
204.9153369544869
245.5961066980028
272.86666642458
258.6380812076886
264.5600794262707
264.0654691480269
263.3734079258455
262.538989123267
261.6793077263277
260.7305423358184
259.6604437776422
258.5789501198406
257.2857032174248
255.9154630758276
254.4026685757879
252.6745482852342
250.7615709547462
247.9808156923607
241.402716095142
227.821413774327
216.8203242507796
208.708858983314
205.1729535953741
203.2509944942447
201.7970827593609
200.6451714500184
199.7718364603775
199.143062071268
198.5163862224422
197.8625285058577
196.9327247247605
189.2235754647151
219.9204128860071
201.3889785025078
222.3012286194296
243.8805288600639
254.2831232207692
250.8263612573007
246.0333948683301
242.7844751610209
244.6252153635018
247.0674533076528
247.2852057535987
244.6580218271675
241.8635284804074
240.0544549429329
241.8323101318767
242.937587533638
243.2410474934177
243.1725384925611
242.862911993742
242.4073758937658
241.4302046640703
240.0362213515652
238.2015863621152
235.6215828780522
232.6760937351665
226.5208315228357
206.8094267031654
207.047873356202
244.8990961450192
272.0866891218949
253.0839001298191
265.3300870146357
264.9191568424541
264.2500210842861
263.5313196449694
262.7008911326133
261.8377479565464
260.8966312584446
259.8360162038873
258.7623105674689
257.4738771376786
256.1164032961983
254.6117398883719
252.8968777673308
250.9957962962112
248.2303432357594
241.6915116382337
228.1929291399645
217.2451867275682
209.1801991712832
205.6674324714444
203.769057073763
202.3989803463242
201.3846026401557
200.6571462952928
200.1692333763844
199.6394178302837
198.899522980532
197.9504371874667
190.9142930894189
218.8091012637863
204.1606470995197
199.8522442394616
221.4255278368784
243.8178762086689
254.1937267276579
250.7237775362598
245.8856911752677
242.5883662580599
244.4294789399648
246.8844510676719
247.2080491172305
244.5227178032734
241.7064168753597
239.8502920664744
241.6166229610428
242.6837483796687
242.933009015724
242.7997211867719
242.4072961268776
241.8305434169351
240.726932836117
239.2334055269805
237.3085179496311
234.9216524044074
232.3723372189228
227.1966492622947
208.8469155892369
209.6463024593164
242.8786482297525
271.2005824468086
262.7811545711661
233.8422901908372
266.052174712375
265.7016726968142
265.1138543468258
264.4069650735088
263.6857529413717
262.8591851785206
262.0152920621361
261.085627762126
260.0267563167919
258.9573607772209
257.6785987502441
256.330770811563
254.8385706143818
253.1324274193952
251.2488803894815
248.5011797705851
241.992535080672
228.5923301411524
217.7058160041033
209.7132671952984
206.2032637996727
204.3476019210343
203.0957254870076
202.2328404797604
201.6597714870356
201.2715194309196
200.8239042543548
200.0332221864758
198.9448769853332
191.5731604700939
204.8930136518206
209.5018504041285
203.9805109280522
199.7563693305322
220.395210624916
243.7033037372259
254.1199495698909
250.5722208398722
245.6948243054679
242.3599005305256
244.2069145660764
246.6668269299261
247.0943988734633
244.3564216170697
241.500892652412
239.6086684692158
241.335562851202
242.3803445061298
242.5591097538789
242.3328306675806
241.8165868308529
241.0881038200239
239.8728530399532
238.251930651265
236.4563820082821
234.4862502476327
232.5223641357654
228.0732626323728
210.7419234323085
213.0421197544355
239.0933373836663
261.2962107464742
262.6604839656591
233.3584949097593
266.7341559727176
266.4480670365757
265.9001848956935
265.2728209483098
264.5743382299851
263.8556407795804
263.0303547917853
262.1977777931023
261.2796852065155
260.2262615694848
259.1661870723206
257.9004177664725
256.5646104282642
255.0840041958181
253.391897299368
251.5180924967797
248.7913491304008
242.3260967686333
229.0438046438921
218.2228054906981
210.2887831443479
206.8082279383111
205.0284574746574
203.9025506113786
203.193771859301
202.7404887044896
202.4382543427637
202.0511017017317
201.1395505693008
200.3418015666038
195.5849004905149
203.0765563438004
213.4150884647154
209.2758773818997
204.0232900347756
199.687293101981
219.529334374957
243.5203419240622
253.9739538679119
250.3754314172062
245.4505485230853
242.08896054722
243.942347351532
246.3981381438177
246.9469279970504
244.1379447624196
241.251154173623
239.3055696878336
240.9932107764988
241.9637191941278
242.071665835047
241.729431147291
241.0557526474481
240.1875619771686
238.8277807421036
237.3052423808152
235.8869085153732
234.4966081464123
232.9757270695906
228.9883585280828
212.1876490297678
210.3176251368357
237.8639585948198
231.3114662288268
266.67599610946
267.4436864871824
246.8445393931471
224.010249897388
236.1941552457078
267.4324296202495
267.1655226563109
266.6547450641758
266.0653746104821
265.4386633414669
264.7462001237185
264.0296050991666
263.2187646969505
262.4004698162091
261.491505250472
260.4476992496406
259.3935913363852
258.1395996014826
256.816056050786
255.3478832352451
253.6685368380325
251.812068918503
249.0982652331263
242.6850811823891
229.5266297397761
218.7742968142018
210.9453943453654
207.5268281373199
205.8266864550083
204.8290814721764
204.2433017972195
203.9003355596401
203.6507593337265
203.2401833011216
202.6722433696445
201.7305338908911
198.2769349305462
199.4201815053105
215.8863700204209
213.2585966523162
209.226448444917
203.9995441399415
199.672874462325
217.9440780377741
243.2817087760078
253.7733315153502
250.1478105881278
245.1769806798883
241.7695476862554
243.617269627816
246.0761869819545
246.7428942926673
243.8614979407985
240.9326834715029
238.9367107891739
240.5513760821095
241.4368254687767
241.4511026985431
240.9499043687889
240.1330404676215
239.0926187364058
237.8135044905932
236.6416195670988
235.7692677306283
234.8128253473512
233.5242392004932
229.7354569165033
214.1413785843742
209.278417270667
209.724183170207
238.8532147803034
233.6426067644159
257.931180195608
268.8911712604398
246.1771283646122
226.0505325026396
235.7236320405393
268.1973316774568
267.8650211816714
267.3754406424795
266.821878294054
266.2348270155547
265.6152468763573
264.9253638623926
264.2233193539439
263.4212424134725
262.608131336796
261.7101786910224
260.6790387066573
259.6394975049128
258.3985950705176
257.0871808160265
255.6344749794612
253.9680356923988
252.1177876954977
249.4276185509721
243.0663911371319
230.0501034796677
219.3962488855664
211.7192563810719
208.3627532708056
206.7575598528004
205.8623715163567
205.3918529218973
205.1170042122878
204.8669691830807
204.6678802105741
202.6596922780888
204.5349898150052
202.120992309909
197.8991875793865
199.3518302067515
218.2386143682867
215.7774341772287
213.2525055819977
209.2216172053949
204.0554388944961
199.6230264243842
216.1477942264366
242.8475372264247
253.5019037549372
249.8243866107738
244.8168135312934
241.3860084515202
243.2302699498704
245.6806274161972
246.4658241370884
243.5102366537522
240.5322250044027
238.4670549782059
240.0055370451115
240.7901936731439
240.6458081127142
240.0076330513721
239.0133028402734
238.0277935788654
237.0750950298926
236.4333290979411
235.9555791874241
235.2021412521605
233.9522719971498
230.3187725572928
221.603637547792
208.944048724011
213.9315034191767
241.7218807452689
236.9696493703188
225.0088256746164
261.4222393415293
256.2667983949175
267.4933847678477
237.0221002110596
212.7426946907638
236.2277593383311
268.8969288304282
268.5744052491098
268.0884194016224
267.5491808509322
267.0038946094815
266.4174569740645
265.7998787059743
265.1249440142366
264.4310073411103
263.6362522186012
262.835495316956
261.952981907385
260.9328305048068
259.9031534062112
258.6761747726311
257.3769164988266
255.9379065600674
254.2829319615137
252.4499729036913
249.7706662543921
243.4710884040568
230.6302074518326
220.1206520893895
212.6382048738128
209.3333084732078
207.8071257200503
207.0170981016865
206.6225631145066
206.39544574383
206.3159066298126
206.1393598401823
204.132397639549
205.8596123864456
203.2425954437576
199.816686622902
199.3178556150183
220.6287738523576
218.1398434310763
215.7743205292163
213.2289317099159
209.1677070689825
204.0041897926004
199.5925557808922
214.0719047035034
242.1897108933598
253.1250023319716
249.3983068327558
244.3877323218709
240.9231227593937
242.7515271877817
245.2040606122926
246.076506752942
243.0645433658588
240.0192255246905
237.8869305017694
239.3069873323788
239.9517186539587
239.6767781565999
238.8767657441697
237.9328955964961
237.2284348520051
236.7940843116453
236.5188677631758
236.1899683918981
235.5228550097237
234.0921480374561
229.3797643497311
232.1073758705363
220.9343602383746
214.4940360846666
209.0359659094669
240.9833177418417
239.3068594644208
225.4110814156985
257.3159657833506
251.7979018212473
266.6443987072687
237.1363648725493
225.1401147605692
234.9651473984566
269.1080851779434
269.1893738600069
268.7814343601672
268.2610035573638
267.7278065173948
267.1868820580614
266.6038323015128
265.9999587736646
265.3369972156053
264.6514162645162
263.8659956584418
263.0742554154515
262.2057638194441
261.2023653669158
260.1872004323504
258.9721055664118
257.6896548820479
256.2608690630228
254.6196791115896
252.7946428713161
250.1348263819895
243.8980109009311
231.286058338165
220.9434352674136
213.6604397329006
210.4309409938566
208.9904920418843
208.2633322450191
207.9706441328688
207.8666988887225
207.8015322078055
207.0505781154544
204.0690292207689
205.7432746960033
207.0353946295302
203.6935434685772
199.1942818421841
203.2303595805242
199.2307383943313
223.0893740139564
220.5741835533319
218.1400252657638
215.75341283935
213.2237541302636
209.1480009673024
204.0256717332526
199.5892437527436
211.576681981938
241.0562304562154
252.566667543344
248.8537756183922
243.8443746909172
240.3482662544374
242.1621776822627
244.5953311230816
245.5498439423188
242.4721061512448
239.3741985882511
237.1401293177679
238.4040204013251
238.9518283324953
238.5237552402658
237.7936694145279
237.1407976696179
236.8833615118511
236.7711046849897
236.6415895748974
236.3445355297918
235.5728403955266
234.8209155210539
231.0306233379797
232.3703435127007
222.2952914684586
218.9091129715122
210.9326698663575
240.0540485199364
233.6029063191541
217.7505410436262
245.1068718469273
262.7945515890814
259.2371814426068
240.4864585162619
237.1519794055613
216.2338717111833
269.7675206170246
269.5919662303148
269.3530179969767
268.9470954758249
268.4375803989821
267.9251774754895
267.3843558093238
266.8129550385784
266.2176469935865
265.5645666849099
264.8878278512622
264.1140836143752
263.3381231902996
262.4792027798892
261.4912817570586
260.4891339976239
259.2887704645992
258.0160380769718
256.602958981654
254.971404702045
253.1594899971811
250.5126701892309
244.3629776185741
232.009260772717
221.8630820045011
214.8064817497311
211.6644637785997
210.3072340907643
209.7204707201151
209.6685480405899
208.100051468241
209.472854963361
208.5910074045581
208.4646741776524
205.1305341905612
206.6826103076746
207.8844718354503
204.7458812618809
200.7807120957468
204.3919736776194
199.2299277626277
225.4423927348534
223.0254857478565
220.5766804016542
218.1251487256685
215.7491428386481
213.2127885310378
209.1286248301981
203.9882906884568
199.555907722109
209.2201101023117
239.4533189522814
251.8258928375383
248.1463807381759
243.1863688406622
239.6426742465252
241.407577425083
243.830625671243
244.8162126460748
241.697328371486
238.5280382601208
236.1948724382645
237.3436084967448
237.7853521929825
237.4333206083548
237.0106844642117
236.815378429944
236.8199717932635
236.8026205615297
236.6600013223517
236.308424984852
235.4426838813052
236.0706023679684
234.8410032298657
231.4723725882777
233.7468670396784
227.5910993440142
220.0957124577498
217.7181271138645
238.6577932288945
236.0755438735642
217.8707873382901
240.8208639182699
262.6232223083115
256.0901785651656
237.9583598763057
235.5985182791881
214.0879406327977
270.2684211264128
270.2248185680745
269.8345402567925
269.5125570996801
269.1184957045063
268.6266684352757
268.1220868712279
267.5959156631311
267.0312271861591
266.4497895888288
265.8040137257814
265.1430819522193
264.3774241409409
263.6147284675587
262.7724676433501
261.7986703486454
260.8123214022091
259.6211932817799
258.365218432007
256.9600040692816
255.3455553490445
253.5337895831568
250.9003951966133
244.8384782502324
232.79223380318
222.8664771301486
216.0759733903664
213.0562039151705
211.8584472710615
211.1464890363071
211.0663735146583
209.2393466591996
210.1270019938529
209.3970687718997
208.6639354724998
206.4078656513117
207.8485013066682
208.2196823696703
205.5192605276939
204.0302363327141
200.0957297605867
205.4346107689277
202.8979967856102
228.0353498409729
225.4256378474645
223.0505201099106
220.5560623015915
218.1231611789231
215.72810240499
213.1872389922561
209.1118064725217
203.9865417981114
199.5400182975133
207.4693205234069
237.5402269918831
250.8641802502311
247.2606652111848
242.3431924443298
238.7821907877747
240.4457647550308
242.8658121151893
243.8454229738901
240.7193475913603
237.4602350020018
235.1179312598753
236.1636938327738
236.712315216939
236.6547102602704
236.667177064575
236.7461182445023
236.8210297981563
236.7515375513438
236.5202237470677
236.4228311445865
235.8155110211316
236.1460934979009
235.3677927378389
233.0469408863142
234.0258222538924
228.8659210208875
225.202014267606
221.8000575575376
237.6799418883195
232.0152121697795
219.0677729171651
216.2572995879288
242.7987850444175
255.1348340466192
260.8283461117585
242.4734945382926
237.6278933297733
237.1136461589736
229.0020683980248
270.7841846581189
270.7460890416866
270.4551737463536
270.0361867845965
269.6865606603054
269.2917606898997
268.8279618068304
268.3379198497675
267.8229534718635
267.2707484966942
266.6990615016678
266.0637261813998
265.4174996822575
264.6610539961027
263.9143968793713
263.0854832853539
262.1274702653044
261.1503835578782
259.9752974522175
258.7268702251826
257.3411074826572
255.7303952975519
253.9273654660135
251.2859354556552
245.3222987891599
233.6182884593362
223.9770426297235
217.4633313077462
214.685485088518
213.438095768185
212.8449942159457
212.2569578909328
211.6288970801378
210.4925264787474
209.5027991535772
207.1766921551402
208.4039395167798
209.1577732300389
206.816781608017