/*--------------------------------*- C++ -*----------------------------------*\
| =========                 |                                                 |
| \\      /  F ield         | OpenFOAM: The Open Source CFD Toolbox           |
|  \\    /   O peration     | Version:  v1912                                 |
|   \\  /    A nd           | Website:  www.openfoam.com                      |
|    \\/     M anipulation  |                                                 |
\*---------------------------------------------------------------------------*/
FoamFile
{
    version     2.0;
    format      ascii;
    class       volVectorField;
    location    "3000";
    object      U;
}
// * * * * * * * * * * * * * * * * * * * * * * * * * * * * * * * * * * * * * //

dimensions      [0 1 -1 0 0 0 0];


internalField   nonuniform List<vector> 
18230
(
(-65.89508865400268 -27.44201882142414 3.978813310981894e-14)
(-31.44881476430844 -3.284636570248954 2.2637573794891e-14)
(1.709775200508524 2.776345964921132 4.607734312990647e-14)
(-63.61123392150176 -26.28751959054182 4.279428741583022e-14)
(358.4280643053033 -118.2809273501321 5.195675784945952e-15)
(-18.08054568422564 -3.164945528768856 2.299224505049706e-14)
(36.82084516618579 59.94787289247451 3.873492290498655e-14)
(-2.295661220743416 0.2179931396903424 4.164350577189581e-14)
(-63.36620198271455 -26.16957684889108 4.364862780364127e-14)
(370.1209940559706 -262.0691013224455 6.423501857172562e-15)
(382.297499800994 -129.6273682413029 7.009701744996983e-15)
(-10.69360626186736 -5.820882102323704 2.294485889480093e-14)
(-47.63787008060223 -220.9968581160646 3.949725214974805e-14)
(26.56299691722452 41.63024092447659 3.662225124270694e-14)
(-5.178094071650337 -0.8931354958586445 4.531048319728923e-14)
(-62.34845405705261 -25.68084060541004 4.443623263729011e-14)
(298.6730830701752 -262.4532293496268 6.34992947350971e-15)
(383.8714094459654 -273.0920388960011 9.667831654688542e-15)
(393.1932968709002 -144.4935964992816 8.376457930725837e-15)
(-1.212127760193148 -7.965754416576753 2.245106223246997e-14)
(55.85365775974488 -438.9433737840444 4.195409573594337e-14)
(-48.85453921798218 -240.9585203497417 4.334249580681374e-14)
(22.51938786072713 31.94283109092536 3.816306451283614e-14)
(-7.961364939175981 -1.944204053917705 4.5792162591395e-14)
(-62.17841183413213 -25.54846559886623 4.603646223023653e-14)
(301.2046538655991 -265.1425406190874 6.563781225314353e-15)
(315.9484746905996 -272.1298375306226 9.875679066333559e-15)
(372.8653315331487 -267.8076062025156 1.121510009321359e-14)
(402.4604924788662 -156.4612526262678 9.576297686495483e-15)
(6.710745435440121 -10.59802858662298 2.214225864660218e-14)
(150.2536950366161 -305.0942143946641 4.29592009258384e-14)
(57.94239542810657 -441.2612012379393 4.823551014649548e-14)
(-45.6270163337296 -246.4296762164159 4.477530843455816e-14)
(18.60937329987631 24.88186830504649 3.855683485845385e-14)
(-13.21535459509171 -4.650831314891705 4.780874774628488e-14)
(-61.37432731643261 -25.24521188165657 4.610540357898201e-14)
(297.2705532651226 -265.6937224722257 5.369014828594897e-15)
(317.6011423961832 -279.3840156731839 9.704813769512378e-15)
(313.2967990609615 -270.1989756303525 1.081232395602631e-14)
(375.9308278560205 -270.0925088062961 1.368099462980481e-14)
(411.2374921455558 -168.1432599944739 1.082229689017952e-14)
(16.00604205270435 -14.48474830154592 2.189331008553538e-14)
(139.3033869408328 -219.7857004666099 4.338067826220773e-14)
(146.0538424543938 -299.3641843297963 4.953703952797726e-14)
(60.35219694146281 -440.6497680794219 4.978235291955402e-14)
(-42.02668783608095 -249.4922577019613 4.608612660182021e-14)
(13.66895187666433 14.44500244423711 3.946502119070952e-14)
(-16.59433142960678 -6.027674102996717 4.84999353883229e-14)
(-60.16186788270532 -24.76997279885869 4.755207466726038e-14)
(291.7920372942309 -265.9024848553128 3.864117300699702e-15)
(313.0517841662767 -279.1242784039013 9.879425139822818e-15)
(307.7647301307705 -270.7618593000269 1.071190681245805e-14)
(321.2897136490402 -277.6136239301945 1.509355790186054e-14)
(369.9014258704598 -268.4518178483872 1.615038963079463e-14)
(421.3890811204071 -180.3198648880594 1.2412774937224e-14)
(26.08590014337213 -19.62884553148125 2.178198115191144e-14)
(135.6196260096502 -211.8112365453534 4.37565296242822e-14)
(141.2843854052912 -224.4722900982282 5.011901162307985e-14)
(145.5349127043922 -298.3821018681733 5.045762393044645e-14)
(62.33102918748362 -440.2195185061706 5.124551218142411e-14)
(-37.70606823862611 -254.6114156733226 4.731641040989525e-14)
(8.934285738392775 4.517233762013197 4.027456210118562e-14)
(-20.24946686363237 -7.347034771556651 4.938459835656339e-14)
(-57.86084191845295 -23.90551231717712 4.77828155798457e-14)
(285.4432841284004 -266.0293411867392 2.172934400861933e-15)
(307.6044424842481 -279.6580991425715 1.015794510391634e-14)
(303.551109989062 -271.4079236506545 1.086278788840103e-14)
(317.4769020973882 -279.1875383431574 1.509573821058092e-14)
(318.0362709590233 -274.7534249983979 1.617547678712986e-14)
(371.6780337818158 -270.8108627934666 1.927027598534361e-14)
(430.1109422890443 -191.5214578583499 1.435481075633465e-14)
(39.58196183925226 -25.92690032153029 2.16881942292169e-14)
(130.2704950636266 -201.1544607123427 4.437039517209695e-14)
(134.2917453782717 -209.9709864284353 4.937900640368276e-14)
(142.0399183987852 -225.8925725485753 5.047816989971067e-14)
(145.9036526457372 -297.9921977700234 5.257270294641432e-14)
(65.47235002067902 -438.8718997079022 5.243308513636894e-14)
(-32.89086390516485 -258.808656616627 4.855783067903086e-14)
(4.602423638512742 -5.517167442445421 4.088488581544603e-14)
(-22.48999942533272 -7.677721293098784 4.993119515376915e-14)
(-53.84669469649593 -22.48690838053666 4.906129585877185e-14)
(279.0996933458235 -266.5113383925673 1.319973266076448e-15)
(301.3626355363752 -280.0690091865265 1.039234793558958e-14)
(298.160762473169 -272.0643570525203 1.087781397187984e-14)
(313.7980158867124 -280.0107855308529 1.572037240551149e-14)
(312.4775545274739 -275.1295274182029 1.603476636108441e-14)
(323.4614779460876 -279.75327260018 2.109705552223512e-14)
(367.2256793611191 -270.7495479261336 2.161268444420443e-14)
(439.0818055358424 -202.5020178608389 1.662464345640016e-14)
(59.36955926736372 -33.89160046139958 2.17430716968272e-14)
(126.1350991694922 -194.5873075149911 4.31585386731659e-14)
(129.6812410465876 -200.1792078420394 4.938259978501633e-14)
(135.6434983032056 -212.2068363397677 5.054645028179289e-14)
(142.4000726157445 -226.5238618139258 5.298821561668849e-14)
(146.2703635595733 -297.9884915312311 5.343381410629332e-14)
(68.25015057203616 -437.4175253918462 5.408787119810881e-14)
(-26.86092664242439 -262.3088030189732 4.982740035034236e-14)
(0.02562830920259913 -16.23694198564032 4.163854223007442e-14)
(-24.2178988920572 -7.431310531208235 5.058699795770607e-14)
(-48.33498258553541 -20.81057606665468 4.944300042086556e-14)
(271.4916057001212 -266.7189122211482 -2.633482808949614e-15)
(295.1114541065414 -280.7205948853528 1.17652646322398e-14)
(292.0372557294086 -272.4890152096594 1.0240883217656e-14)
(307.7964971336035 -280.2447208411629 1.576299601783374e-14)
(308.0703192803442 -275.6369072640017 1.591813498262669e-14)
(318.8063056419871 -280.6355954977408 2.124740411117917e-14)
(321.3643107884428 -278.0822731286309 2.143726538330664e-14)
(366.7416813892712 -272.1992743003006 2.464268921660139e-14)
(445.9588041901374 -212.0997608861803 1.91574018766242e-14)
(83.32899808284832 -43.41584817578328 2.191168700284234e-14)
(123.2561070975519 -190.2415707598202 4.234294310563116e-14)
(126.1832724851062 -194.6449838119665 4.8905073489479e-14)
(130.9175166143318 -202.1987307692383 5.014519511053673e-14)
(135.6631910124967 -212.2782172891353 5.240857905884445e-14)
(142.9953032750613 -227.715428858581 5.416882233983031e-14)
(146.6098608605947 -297.5620296117986 5.579917486776831e-14)
(72.24552883742057 -435.6221982811264 5.560672763824262e-14)
(-20.02662851004308 -265.9399377109659 5.108583575554075e-14)
(-3.766429710697042 -26.56486886611221 4.259285456314597e-14)
(-25.22650851956522 -6.686165740153895 5.14883794116327e-14)
(-40.57460695556334 -18.64152975639568 4.970297915719596e-14)
(263.6073399501039 -266.841921918427 -7.785957974154176e-15)
(287.2085304270439 -281.0220155236274 1.337882605697851e-14)
(286.2149635257792 -273.6684206946264 8.882510936624746e-15)
(301.5795370002141 -280.8064762501208 1.661450705334651e-14)
(302.7872248252115 -276.2914561419665 1.566798191971132e-14)
(314.7650430051006 -281.3646098970499 2.185907597603022e-14)
(315.765658072802 -278.2241004194638 2.146379969245475e-14)
(324.4912284325068 -281.0812798926108 2.650161380865933e-14)
(362.6375131882598 -272.6731671045376 2.68435328709329e-14)
(449.5458199770052 -219.8830804543731 2.179080238464342e-14)
(106.3629238096025 -54.34563200146748 2.220314065169895e-14)
(120.9894315757627 -187.4674349084493 4.355298999616441e-14)
(123.6048453578466 -190.7991442814562 4.901792595416771e-14)
(127.2859074980588 -196.426369537436 4.984819801942362e-14)
(131.2311541473516 -202.760140200694 5.236076588043061e-14)
(136.410583066589 -213.6531967982144 5.386786788540632e-14)
(143.3172736055567 -228.5189977778819 5.634821229332322e-14)
(147.1928049785986 -297.46698873054 5.716043578955405e-14)
(75.79443788591527 -433.5252616531249 5.726587245835177e-14)
(-12.73262455803549 -272.502016282865 5.255126880618017e-14)
(-6.36727583178786 -35.46232102652172 4.374020349117896e-14)
(-25.8398434693825 -5.74748096594983 5.242316040703707e-14)
(-31.00724532383415 -16.12877246068314 4.8869847340065e-14)
(252.7783678363864 -268.0554898459021 -1.987470725138399e-14)
(279.1213718221881 -281.3212929628315 1.6053457354263e-14)
(278.8080107097628 -274.0834676990536 7.636144052355051e-15)
(295.3462823067015 -281.6276930811694 1.826873906862588e-14)
(296.9602771979214 -276.9714684868803 1.520182536847429e-14)
(309.1747806778958 -281.9362455746459 2.240002577324044e-14)
(311.6249863702811 -278.969039715223 2.135911007068222e-14)
(319.7157715877983 -281.7989811868046 2.665363989460105e-14)
(323.3699478301816 -280.3605072819319 2.711782564815156e-14)
(361.044404720043 -274.042057976366 2.983602360160902e-14)
(450.2107674010918 -226.7498597582952 2.447240054042104e-14)
(131.1258868495476 -67.10576325083792 2.259901030753283e-14)
(119.6571726477686 -186.1109581130643 4.302145294050349e-14)
(121.7055328428909 -188.4855677695446 4.880926426444835e-14)
(124.666708271219 -192.4911630411478 4.962627192388341e-14)
(127.8276273041498 -197.3159726072303 5.201815838837327e-14)
(131.9301493375074 -203.9455409354847 5.36312540579133e-14)
(136.8253769406634 -214.3961894693427 5.594707416745694e-14)
(143.7862515287278 -229.4568642485649 5.78328181352161e-14)
(147.4855831886169 -297.3731687322274 5.918330448476325e-14)
(79.63213378992619 -431.1583324829351 5.934670828621751e-14)
(-4.942321641615722 -278.9816511949086 5.413139707628298e-14)
(-7.616526768284062 -43.63690845980987 4.508421412185546e-14)
(-24.95151314482283 -3.924045548605936 5.327977751566887e-14)
(-19.23907628833197 -13.53334668041187 4.672050215843294e-14)
(225.9304743721697 -268.9207872105842 -2.738026098035469e-14)
(266.7668944206728 -281.4910694678781 1.962454628678366e-14)
(271.2760572853157 -274.8190976920411 6.060541627765367e-15)
(287.5246193359895 -282.0293454767016 2.005341308125293e-14)
(290.3546798968317 -277.4867082182232 1.458137783251241e-14)
(303.0738548034904 -282.5265182990792 2.302122905952492e-14)
(306.0329580244856 -279.4339692679007 2.116327779976866e-14)
(315.6751933072427 -282.6397777983915 2.717114303378936e-14)
(318.0844340049066 -280.5051223871121 2.739881046596597e-14)
(325.2832146964114 -282.3980543175832 3.146442049840896e-14)
(357.2891889625093 -274.9157050477057 3.20580972042983e-14)
(449.0077681892111 -233.2376059708912 2.739789768726603e-14)
(153.8847075164673 -80.84357615176376 2.343211031855856e-14)
(118.8819672963329 -185.1676966584803 3.969897552317273e-14)
(120.8941937821876 -187.9253588439314 4.940460863087568e-14)
(122.7141481709083 -190.0840682786553 4.968442260668495e-14)
(125.3705816612962 -193.61621434613 5.221432442306184e-14)
(128.4735013548969 -198.3796906644645 5.354226614894441e-14)
(132.5825929073831 -205.0744784639991 5.568103428103457e-14)
(137.4312376659869 -215.5239688089856 5.732189257095428e-14)
(144.3731689423387 -230.5973584210586 6.002481506071851e-14)
(148.0168659225397 -296.6794700086664 6.145534408758097e-14)
(84.08659126353737 -428.7184293934899 6.130446010558273e-14)
(4.17490682678558 -287.6492660201869 5.582918630023815e-14)
(-7.733809119900872 -51.86903303418382 4.677089422480813e-14)
(-23.26581982340193 -1.993470239844147 5.42373953213134e-14)
(-8.836207333729732 -12.19937347793171 4.402557028107149e-14)
(191.9774462657051 -259.3783604336057 -2.915961891747056e-14)
(235.7659191773393 -276.8595565023618 2.998913257216652e-14)
(259.0728319156459 -274.750087071354 2.540566467380094e-15)
(279.4212113816067 -282.3820458368133 2.24980737482487e-14)
(282.7163411937222 -277.9229879479431 1.394088913463809e-14)
(296.4377032610803 -283.0536008610256 2.396300762350163e-14)
(300.1119427344412 -280.100941019026 2.107147881943502e-14)
(310.1004462278146 -283.2321479315419 2.775331102023784e-14)
(314.0012426541016 -281.3402933381546 2.741430451097993e-14)
(320.780232065551 -283.0915823745909 3.149567567497819e-14)
(324.6486684435907 -282.1898925857129 3.264314153412153e-14)
(354.7236959424535 -276.4721945714102 3.496919778595749e-14)
(445.900769144043 -239.6405565688461 3.056927959865858e-14)
(172.4698771762179 -95.50777899308191 2.458421794837115e-14)
(118.3373620940087 -185.1957486271423 4.033505812196248e-14)
(120.4501263031628 -187.6007144479924 5.147157682678429e-14)
(121.7904030814578 -189.3364478301286 4.923458658985783e-14)
(123.5741017998789 -191.4340212513365 5.19508150580333e-14)
(125.9936853088175 -194.6206211308344 5.316955208739959e-14)
(129.3203129751115 -199.7608397496299 5.538909534340043e-14)
(133.1373939827603 -206.045748559595 5.735505115864138e-14)
(138.160068765541 -216.882087345082 5.970094329898308e-14)
(144.7738104771193 -231.624773878113 6.183712269788918e-14)
(148.6417756549016 -296.3091194312216 6.347110824604407e-14)
(88.33484594577862 -425.4417548377466 6.341979067046355e-14)
(13.77682427399356 -297.3129244207053 5.770065424306239e-14)
(-5.858277600725896 -58.78952498781227 4.84572879950542e-14)
(-22.1005605856603 -1.091069034303348 5.511567801320207e-14)
(0.5496645754600644 -12.65393233989982 4.142601195431502e-14)
(152.1651226300311 -233.4222338785778 1.266832974860307e-14)
(199.8751903015279 -265.7474163380187 3.70483045720055e-14)
(231.2100909035924 -271.9725968491078 9.85258330627051e-16)
(267.15932366016 -282.6675994577529 2.581175759335891e-14)
(274.7298664124309 -278.2582257610022 1.395635255435195e-14)
(288.7183244458562 -283.5012287190496 2.487141412345301e-14)
(293.2382906788184 -280.3938855938317 2.051614509706973e-14)
(304.1116359410445 -283.8525055138193 2.815726516038945e-14)
(308.3622562074848 -281.8214429494091 2.742737351167917e-14)
(316.5925127007411 -283.9253283238066 3.177563259231773e-14)
(319.767773832745 -282.361456985344 3.284511540179962e-14)
(325.9957236859036 -283.8342717611632 3.638406072880353e-14)
(351.5889182009361 -277.7772959225948 3.756662755459796e-14)
(441.6054001561159 -245.778420398021 3.388085847764196e-14)
(191.224268498941 -112.074803936712 2.585655913289639e-14)
(118.2350319923509 -186.2575408831965 4.021413154447671e-14)
(120.1057705461089 -187.9687574954278 5.231719376049428e-14)
(121.2399624734154 -188.8382994620129 4.638830847514447e-14)
(122.8219052712724 -190.9499517746982 5.222455668052452e-14)
(124.1642807577321 -192.3774717452829 5.310357373923029e-14)
(126.988055865973 -196.2236934801389 5.540548996567625e-14)
(129.8447669441462 -200.66039791113 5.725006849953886e-14)
(134.1164922409813 -207.7455386029262 5.933356011240946e-14)
(138.7015309868788 -217.9233307829029 6.136607503576685e-14)
(145.5656260834552 -233.2221547612525 6.449908294624028e-14)
(149.1425866038721 -295.7466347579212 6.577085837764008e-14)
(92.67120570580201 -420.9942692934542 6.609437223583429e-14)
(24.67103322272249 -308.8794341546958 5.993929689639268e-14)
(-2.273879332861586 -65.91433875808964 5.026161385222512e-14)
(-21.93201989473039 -1.595538759790983 5.593529759041075e-14)
(9.358802594001817 -15.09840025695322 3.9123609676437e-14)
(135.572891574714 -212.3218622095401 9.649352058751384e-16)
(155.8878049405481 -236.6071753217126 2.618751987525545e-14)
(197.1619574743688 -262.8936776435627 -7.027471305237892e-16)
(236.4876807183624 -278.0034147306753 2.748699879558254e-14)
(262.5145435810783 -278.4440037969217 1.349031295882761e-14)
(280.5881951800362 -283.852811958118 2.487079798669148e-14)
(285.5979162234038 -280.8813564858529 2.045489881069881e-14)
(297.3740437913982 -284.3279167814517 2.859796292201586e-14)
(302.3365145540459 -282.4435811441848 2.753862554753649e-14)
(311.0079023204248 -284.5072378004589 3.197895449535828e-14)
(315.7208394515454 -283.2727266756108 3.311033449758567e-14)
(321.8156343193501 -284.4751586807574 3.64009870846864e-14)
(325.7419233548928 -284.0806492641233 3.860250072162772e-14)
(349.2007172896715 -279.8003202670419 4.05102115668407e-14)
(436.1022526413358 -251.633151608577 3.735491105306806e-14)
(208.8765132318896 -129.7316409085822 2.773156345164792e-14)
(119.2607520115441 -189.4112471957828 3.349143208588915e-14)
(120.3572485265357 -189.6487052473146 5.193650647731336e-14)
(120.7933038976522 -189.0343254545772 4.597469918525262e-14)
(122.4116388955738 -190.6767047675348 5.411539239096873e-14)
(123.3806735054585 -191.8325095564426 5.22952856789413e-14)
(125.2871131065104 -194.1553322873291 5.546838306799437e-14)
(127.475977363242 -197.027082381726 5.681924854312241e-14)
(130.9913856957321 -202.5535782534926 5.919057322093587e-14)
(134.6041568396546 -208.65707009243 6.141430207682833e-14)
(139.762013410183 -219.8871855498155 6.411588709328052e-14)
(145.9249735529975 -234.1987218356649 6.64624940338298e-14)
(149.9701534952588 -295.512409647415 6.88609337392391e-14)
(96.71325751292552 -415.2260714079686 6.852894477918623e-14)
(35.94161105563751 -320.1916620838501 6.252336400982882e-14)
(1.90542874568166 -75.30296998388121 5.238861925077183e-14)
(-22.51745918064929 -3.443080010315713 5.70801070568805e-14)
(19.16757075119462 -19.83998450807278 3.754764476773634e-14)
(128.6977571382933 -199.9306762190475 5.188434035343414e-14)
(139.1369293773679 -217.8606029841995 3.356166871954403e-14)
(154.8760869488461 -235.4679553035911 1.858555511101113e-14)
(200.6204093102489 -267.2694051751764 3.092294178114944e-14)
(232.7487376950276 -273.8282597621854 1.433083142205822e-14)
(268.2939987341829 -284.0875670678412 2.626595030643666e-14)
(277.5180250305395 -281.2095388052222 2.116638738664606e-14)
(289.6940058370503 -284.7826859919726 2.914885834921307e-14)
(295.5779685239328 -282.8867256636587 2.763666581943819e-14)
(305.0384245939435 -285.1806924661555 3.212984514903386e-14)
(310.0264940596487 -283.7478631806669 3.332349895855694e-14)
(317.5510592686298 -285.3535705275906 3.652530873639513e-14)
(321.2050551121935 -284.1974289538559 3.88558011584558e-14)
(326.7227209105441 -285.518067838858 4.196588410465132e-14)
(346.4912240788453 -281.3821530658332 4.352960975860895e-14)
(429.9218348290891 -257.2560759699837 4.101798664469429e-14)
(225.0693831182769 -148.3475556840011 3.008538109700142e-14)
(121.8763968485434 -197.5365829939028 2.802450519566669e-14)
(121.824693478739 -194.463572706529 4.999480481843323e-14)
(120.9491230568722 -190.5750330429779 4.50446612584598e-14)
(122.0699853459411 -191.0384607702586 5.426943425285836e-14)
(122.9216536698115 -191.4751448474142 4.978358720609764e-14)
(124.6190028292216 -193.7717655300969 5.612784987643456e-14)
(125.7780370407494 -194.9444070772028 5.629946669718183e-14)
(128.7871794829897 -199.1387400026683 5.931014312443804e-14)
(131.4698798156821 -203.3827213284274 6.103475894657274e-14)
(135.9283310090964 -210.9397736235877 6.378056279497101e-14)
(140.2788086897316 -220.946563216905 6.608581551466281e-14)
(147.0588678643103 -236.4697265172675 6.97480565236529e-14)
(150.7230815267024 -294.9028710529488 7.121971119843836e-14)
(100.6846491136566 -409.4262364145874 7.205288698865018e-14)
(47.6790330704024 -330.5148567390114 6.523544726339308e-14)
(7.340819032470985 -86.62205902422988 5.478428131310304e-14)
(-24.80643404401856 -7.771420619107452 5.843315699394787e-14)
(31.16787033315202 -27.40371328688344 3.65346973232773e-14)
(124.7583094524116 -192.7953651800138 4.59785097550388e-14)
(133.4695013530086 -207.8159968539309 1.298166491235586e-14)
(137.7636042579784 -215.7025041978787 9.772757735314122e-15)
(156.9896583530645 -238.6314241828633 2.626626360026455e-14)
(198.6521160593653 -264.7941340671427 1.980888592002429e-14)
(237.4261617131383 -279.4614781345491 2.660350654248365e-14)
(264.8440015378312 -281.0322384334467 2.093579633878675e-14)
(281.552030504038 -285.1102252690796 2.865251642625215e-14)
(287.8315019697026 -283.270766090673 2.786938918360586e-14)
(298.3134501201961 -285.6658406361455 3.225161206533703e-14)
(304.0243514951369 -284.4159844018014 3.365669466299277e-14)
(311.9279634436227 -285.920343379112 3.672821761859313e-14)
(317.1736855447514 -285.1829120683564 3.920696611913775e-14)
(322.888313433108 -286.0934411325963 4.210153579136558e-14)
(326.7023636528803 -286.149987226718 4.504226310182211e-14)
(344.3391669509948 -283.3274383067858 4.687293296273079e-14)
(422.9991767232789 -262.6469149393269 4.493692505573317e-14)
(239.7824870547148 -167.5696769053845 3.302079734451329e-14)
(121.293960645981 -193.2355865396385 4.633794200216501e-14)
(125.1986587902096 -202.9212838901073 5.198998188070216e-14)
(122.1915931236852 -194.9101252745612 4.314201216545326e-14)
(122.3592159938119 -192.8060885645383 5.45714329277822e-14)
(122.5413264867962 -191.781931117005 4.947145395660168e-14)
(124.2431150562614 -193.5458994655858 5.739409700064486e-14)
(125.1048904048602 -194.5389605443663 5.514930417259348e-14)
(127.1744242819158 -197.1596534511291 5.960219986245067e-14)
(129.2341323040053 -199.8910237528163 6.047700496930126e-14)
(132.9776994120503 -205.8899757776437 6.396535220516111e-14)
(136.4282380980921 -211.8985350391833 6.578820134361093e-14)
(141.7051708842513 -223.5713998537628 6.966191818770438e-14)
(147.3931396019676 -237.4914611491073 7.187642421358561e-14)
(151.7958307178461 -295.0852266168561 7.603968217431543e-14)
(104.862980955344 -403.4969123468743 7.487666757693535e-14)
(59.64688032056267 -341.2638552492868 6.839527068149365e-14)
(12.94387795539755 -102.6074226028684 5.752947767953187e-14)
(-26.13061752669078 -12.62431826756499 5.982041854884711e-14)
(45.23710013108011 -38.11071119995736 3.664647242606042e-14)
(121.6241865734943 -186.6493379523397 3.289620843004345e-14)
(129.8319263025896 -200.6319462279151 1.003894051791319e-14)
(131.2602131397747 -204.3009820577917 3.769951203527239e-14)
(140.516725998802 -219.9906117796758 3.621461307282193e-14)
(156.1100826937187 -237.3119859406089 2.291680207340981e-14)
(201.7570878471248 -268.8192604841188 2.784782986013093e-14)
(235.0064929310771 -276.5623379330994 2.407661639061879e-14)
(269.1851624248121 -285.3526191574384 2.820548825947561e-14)
(279.6713596047518 -283.5623358725808 2.875431659044168e-14)
(290.6785920194256 -286.1046618419379 3.213956073594758e-14)
(297.2985946017401 -284.9036185143763 3.400841911354735e-14)
(305.9603955414814 -286.6095133299418 3.691810942369159e-14)
(311.4418258480255 -285.6529870466262 3.94683828528938e-14)
(318.4851281349002 -286.9927177926892 4.226818457551604e-14)
(322.538347832619 -286.1511302612317 4.521244671939629e-14)
(327.4449918427252 -287.5180447326478 4.860308325400223e-14)
(341.9667834750532 -284.9352839058899 5.051840092571705e-14)
(415.7861893158724 -267.6989394001549 4.900375018434524e-14)
(252.9514991251841 -186.474365485843 3.653937503101517e-14)
(116.4283792844266 -180.4933308953149 4.530380458116745e-14)
(124.6778898306637 -199.0963007821446 5.620923368792977e-14)
(125.2973520493037 -203.077515352352 4.841838411012807e-14)
(124.0631978486013 -197.9939133261942 5.457007877368121e-14)
(122.8071668312164 -193.4825458163711 4.819422867826953e-14)
(123.9331959097487 -193.9727143383499 5.740155557390235e-14)
(124.713952955551 -194.2901296592691 5.342266221063169e-14)
(126.5918595774955 -196.8646543284654 6.01610841467124e-14)
(127.6899819953181 -197.995777238646 5.989338520203147e-14)
(130.8947634668673 -202.5686673723846 6.403596372565163e-14)
(133.476530147942 -206.778265419291 6.521763838820724e-14)
(138.1177248136426 -214.8459362368297 6.967559415315184e-14)
(142.278045486802 -224.7766966061378 7.142372342827553e-14)
(148.9350868137132 -240.5110632199619 7.662479633220157e-14)
(152.8241839403551 -294.3111275243865 7.783046697446142e-14)
(109.1954201478554 -398.3685248842235 7.900575380054718e-14)
(71.40420863942218 -350.4760094516529 7.187256734555567e-14)
(19.49665133815764 -120.9998967881225 6.069268755488188e-14)
(-25.10268284549848 -16.15475629182079 6.17357622197114e-14)
(61.49003295943889 -49.93271980684842 3.721213591583387e-14)
(119.5256729486192 -181.4130674219776 4.063098350238232e-14)
(126.2657007273985 -193.5854029347244 4.000606633232481e-15)
(127.6598506803005 -197.2652333499714 3.819082240536671e-14)
(134.8873725089527 -209.9490239500894 1.662902364147562e-14)
(139.1844082617279 -217.8672380418064 1.525122768487577e-14)
(158.3685413644336 -240.7373954811989 2.43329960447512e-14)
(199.9538019033675 -266.5631576534297 2.048361548882078e-14)
(238.4850716431649 -280.7284405721028 2.495374785715602e-14)
(266.9165160302704 -283.440154308999 2.96298746849541e-14)
(282.5371656130292 -286.4292596701255 3.241829195318313e-14)
(289.6173529029515 -285.3190453826044 3.475661001617127e-14)
(299.2784642402657 -287.1203283990354 3.687854574042293e-14)
(305.4423100139512 -286.3187627040336 3.981044202280578e-14)
(312.8647781521075 -287.5866913840561 4.245798198207218e-14)
(318.4207743802057 -287.2270492251728 4.550328917990163e-14)
(323.8604101400904 -287.9353148573533 4.872542901731417e-14)
(327.5206827319034 -288.325763237147 5.233914059384833e-14)
(340.1612916993442 -286.7207757992211 5.409219413495746e-14)
(408.3141525859319 -272.4250717677281 5.328099439721803e-14)
(264.2236606286771 -204.5380837481432 4.054992866235374e-14)
(109.7336436452333 -167.7723140654583 2.984311217722893e-14)
(118.1803460674808 -183.7836595976533 5.171282572606049e-14)
(124.6665612022741 -198.6337949014362 4.724505721743051e-14)
(127.3040106919422 -206.3241111190723 5.071348718274615e-14)
(124.2027083961412 -198.1660935064556 4.721863126994403e-14)
(124.3548101076208 -195.943077968985 5.802571454304219e-14)
(124.4143836069029 -194.7217800916549 5.323383671816582e-14)
(126.2670377583906 -196.7262004538436 6.092571544020359e-14)
(127.0821136160476 -197.6496821616456 5.880495102464515e-14)
(129.3865584454993 -200.6892548695282 6.445300824000396e-14)
(131.4120901566875 -203.4498898161514 6.469280419185526e-14)
(135.3761278597465 -209.9301786320739 6.971089137127628e-14)
(138.6978771301781 -215.975965154239 7.096520928064494e-14)
(144.1169180760801 -228.1576170390843 7.661481767906425e-14)
(149.343509451046 -241.7768738009776 7.873630483345882e-14)
(154.1174733882005 -294.8640279373924 8.371464649728266e-14)
(113.1524020044215 -393.3166435230508 8.288859094154049e-14)
(82.80917833092137 -358.794327151084 7.640184819219467e-14)
(29.39794555343878 -139.8152734779341 6.429747217128551e-14)
(-22.1616670454648 -21.11251988757125 6.456915868497328e-14)
(77.27457750880009 -63.58934798175748 3.776529735597945e-14)
(117.7420453441587 -175.8852721416087 2.042886495555348e-14)
(123.1966691234308 -186.8707796786258 1.103637611340092e-14)
(124.6201567109184 -191.0926067933313 4.275590996221524e-14)
(131.2593407083183 -202.8329592514852 9.639495551612567e-15)
(132.7939371690106 -206.6872738821508 3.409190614559448e-14)
(142.1164693830635 -222.4350415466061 3.247892663207657e-14)
(157.3927252397406 -239.2136816474273 3.153764515271212e-14)
(202.8738574892834 -270.5781183230603 3.077766735312854e-14)
(236.7601905931588 -278.8299598570537 3.212977011571197e-14)
(270.1278657152735 -286.6891393015318 3.211447167999378e-14)
(281.4202279898876 -285.6041023555308 3.504712774502137e-14)
(291.7029919309742 -287.5523033944611 3.693811055636254e-14)
(298.7526775526476 -286.8476231822794 4.016534237407941e-14)
(306.8924146022442 -288.260815249778 4.266654533573075e-14)
(312.6905641413608 -287.7076160465877 4.580559313499251e-14)
(319.2683976088834 -288.8441484561353 4.892234565881784e-14)
(324.0060170775099 -288.4497385562017 5.257333618654272e-14)
(328.0118258099231 -289.7349793036631 5.581731345165775e-14)
(338.2819377343124 -288.2398572256881 5.824737734761199e-14)
(400.8647731296178 -276.772320349054 5.759863848866955e-14)
(273.529545384339 -221.1112804255348 4.46889426509386e-14)
(106.3169921051544 -166.8750932981341 4.747996410584161e-14)
(111.0040291315908 -169.8711201188215 5.736882973443473e-14)
(118.7313340867628 -184.5778288157841 4.878749916017498e-14)
(126.666926136304 -202.1052441652672 5.755129883274445e-14)
(127.3486342636694 -206.3926777549765 5.282254314997253e-14)
(126.206095355442 -201.3197856991399 5.86823694872818e-14)
(124.7769492170011 -196.5444649318238 5.244276090560476e-14)
(126.0171717509768 -197.2379287745846 6.109719614996919e-14)
(126.7603777125862 -197.5033963866236 5.762206578937092e-14)
(128.8892855998567 -200.4810667092718 6.497271583783619e-14)
(129.9836921669047 -201.6524551904103 6.400948958852966e-14)
(133.4411767524786 -206.7287210227171 6.991153421676357e-14)
(135.9833291200422 -211.0192025184861 7.047533866516118e-14)
(140.8292562282132 -219.6849404899002 7.659575339745923e-14)
(144.8364608323776 -229.6482037737857 7.824657353099029e-14)
(151.3669669538076 -245.6502191059458 8.541558514625736e-14)
(155.2151481974438 -294.1605829886214 8.697729002540664e-14)