/*--------------------------------*- C++ -*----------------------------------*\
| =========                 |                                                 |
| \\      /  F ield         | OpenFOAM: The Open Source CFD Toolbox           |
|  \\    /   O peration     | Version:  v1912                                 |
|   \\  /    A nd           | Website:  www.openfoam.com                      |
|    \\/     M anipulation  |                                                 |
\*---------------------------------------------------------------------------*/
FoamFile
{
    version     2.0;
    format      ascii;
    class       volScalarField;
    location    "6000";
    object      alphat;
}
// * * * * * * * * * * * * * * * * * * * * * * * * * * * * * * * * * * * * * //

dimensions      [1 -1 -1 0 0 0 0];


internalField   nonuniform List<scalar> 
18230
(
1.158768863709358e-08
4.809737402026961e-10
5.02551602362896e-08
8.541738356206394e-07
3.293027750881184e-11
2.899855257938977e-08
7.830224732980229e-10
9.913500810961666e-07
1.588637867363117e-06
2.46954400382228e-10
1.656427013030528e-08
8.127669051818769e-08
5.663706166026223e-11
4.728605832169629e-08
1.230589660601162e-06
1.924580747075124e-06
4.319876748959582e-10
2.343487988393717e-07
2.518018045166147e-08
1.213088073354021e-07
2.021097313765508e-10
1.230800506070969e-08
1.25773580043609e-07
1.781633170566096e-06
2.730179961539507e-06
3.916349329974456e-10
2.176507957702365e-07
2.495311361077198e-07
3.059821306733996e-08
1.706082248866628e-07
8.098799078320792e-10
2.068954062557098e-07
2.978700206368004e-08
1.968375081169342e-07
2.196838171302532e-06
3.083492658720736e-06
5.188191580080467e-10
2.703482310782307e-07
4.757212591935709e-07
3.410654534181956e-07
3.194582463660271e-08
2.089537118837328e-07
1.879984685021084e-09
4.700851641211923e-07
2.821834648748123e-07
4.814626927110616e-08
2.279449289733842e-07
2.078786292760083e-06
3.595070676578154e-06
5.19563866078603e-10
3.107430561597503e-07
4.646871712113397e-07
6.673818210740068e-07
2.594598105887286e-07
3.759296729442647e-08
2.49736931032003e-07
2.266137125776517e-09
6.987066676244345e-07
1.362504588772253e-06
4.162075608506369e-07
6.67477980530779e-08
2.836273560044273e-07
2.607760859162172e-06
3.563814146626083e-06
4.139418421518401e-10
3.153429807320047e-07
4.923409859391111e-07
5.113698103730239e-07
1.291229079266016e-06
2.8404606011207e-07
4.348289559928694e-08
2.991075485106858e-07
2.686491999729263e-09
1.222216881669788e-06
2.574145115741127e-06
1.771126103925485e-06
4.123517768949016e-07
8.520308135730695e-08
3.548094677643074e-07
3.295100412669565e-06
3.487659489788745e-06
4.119167202789434e-10
3.013025242835965e-07
4.839485505261247e-07
5.571576736549823e-07
1.338549567658268e-06
2.055370204635234e-06
2.956282302032827e-07
5.342719788157955e-08
3.560428889618671e-07
2.292947824143554e-09
1.405857428869235e-06
2.629180338421136e-06
4.004460608527071e-06
2.082696486763396e-06
5.06914298968694e-07
1.086096203186489e-07
4.409547844651934e-07
3.132475778343139e-06
2.894175788625454e-06
3.855067967481962e-10
2.9019079035555e-07
4.944422047084445e-07
5.594119025893788e-07
1.464571350883108e-06
1.601751038387479e-06
3.006146218681356e-06
3.623751492665589e-07
6.695362089994596e-08
4.181603126249496e-07
2.175153277203129e-09
1.354289385922122e-06
2.723866689650417e-06
4.204947211286845e-06
5.610188744054387e-06
2.506555817470516e-06
5.821797977245819e-07
1.431205104366137e-07
5.448782582892918e-07
2.514392886045168e-06
3.320735133630336e-06
3.392811342162047e-10
2.790892244302142e-07
5.263930338455428e-07
5.626800883874884e-07
1.548988943099187e-06
1.611759308286329e-06
2.999697407905994e-06
3.955605607906941e-06
4.155758572219654e-07
8.540197083664901e-08
4.901965705700326e-07
2.400771244339437e-09
1.292526230044535e-06
2.698387426966411e-06
4.27564607150078e-06
5.920988288452867e-06
7.414768170835503e-06
2.818013438402753e-06
7.901843843829466e-07
1.958240242076971e-07
6.583759637026434e-07
2.854526882811872e-06
4.625949225228088e-06
3.072474217970066e-10
2.527607648664092e-07
5.787550756121827e-07
6.749177416934055e-07
1.642115212628122e-06
1.748153935351128e-06
3.172055613555143e-06
3.880488278085966e-06
4.749585967546985e-06
5.07701038085311e-07
1.119316341359287e-07
5.807447371197362e-07
2.315514306328124e-09
1.342675825413737e-06
2.654190453311842e-06
4.257429794662833e-06
5.976134389641849e-06
7.781364239434723e-06
9.359776795085979e-06
3.435036706676568e-06
9.717861524420744e-07
2.704546641641086e-07
7.791287860565717e-07
3.768738846695046e-06
4.187952205635629e-06
3.645653642427562e-10
2.39684938619661e-07
6.703290880530584e-07
7.437112872731744e-07
1.78369149471039e-06
1.889118658006967e-06
3.28699821240949e-06
4.017632303411094e-06
4.831723012460662e-06
5.854050035543485e-06
5.779456442490707e-07
1.473024084258017e-07
6.94098805485238e-07
2.104663501191168e-09
1.325623811220249e-06
2.701407088990172e-06
4.200723597162348e-06
5.956892627615873e-06
7.697197335359156e-06
9.761773689920021e-06
1.141723767658991e-05
3.62639472944815e-06
1.149747777603714e-06
3.655159995993137e-07
9.329689311359448e-07
3.999593964411925e-06
3.667764748390587e-06
4.712233663793725e-10
4.429734387625059e-07
8.938696583622624e-07
8.59719196260361e-07
1.944302887116568e-06
2.128008835859979e-06
3.423996758588339e-06
4.135584592480403e-06
5.066953062344932e-06
5.991928550697493e-06
6.199428476204176e-06
7.067468267595238e-07
1.965966144582059e-07
8.339400909101728e-07
2.430182103162042e-09
1.2690051479301e-06
2.649972345636915e-06
4.223977522226904e-06
5.887076762875068e-06
7.326982573211176e-06
9.897479689760017e-06
1.08713465093028e-05
1.361430828319794e-05
4.24378833955873e-06
1.407233170745465e-06
4.884448108732657e-07
1.156859657310564e-06
3.770548541591312e-06
3.225495994671427e-06
7.933789863611498e-10
6.10855283253881e-07
1.284394809760094e-06
9.63109584488594e-07
2.135374524077746e-06
2.18892684174651e-06
3.587781203019486e-06
4.37661461978773e-06
5.224734978309286e-06
6.265223237418301e-06
7.390975126336191e-06
7.423580660575467e-06
8.53843975395507e-07
2.660977913044015e-07
1.009870743760667e-06
2.361695186468692e-09
1.383849842123402e-06
2.593556260924044e-06
4.139852672613971e-06
5.878741574486268e-06
7.215364400254508e-06
9.892807748032118e-06
1.051761304153016e-05
1.420392397490584e-05
1.589913735431353e-05
4.367008087222385e-06
1.679649996780539e-06
6.725384673755442e-07
1.490469182618642e-06
3.760978889392055e-06
3.093115988355587e-06
1.263854977264746e-09
8.724921105872208e-07
1.498203356967076e-06
2.053296584884435e-06
2.419015033901627e-06
2.376956133771134e-06
3.774006370686353e-06
4.285197799830708e-06
5.449715311931546e-06
6.464323411143196e-06
7.738045352441042e-06
9.216558741877309e-06
7.979148540597095e-06
1.051946381331926e-06
3.63557970966251e-07
1.244615613563555e-06
2.233930043635506e-09
1.387401842544907e-06
2.632365313213458e-06
4.051405578763209e-06
5.790400091480405e-06
6.879835018994917e-06
9.800120207293776e-06
1.011274462275251e-05
1.443366007474282e-05
1.34018729854789e-05
1.854965631053653e-05
5.042904266615522e-06
1.966530623489798e-06
9.624451848942708e-07
1.912257884343244e-06
3.674185115151934e-06
3.282267391651333e-06
1.300452761160325e-09
1.117965525955017e-06
1.905571008708603e-06
2.432309229442182e-06
2.901878380420347e-06
3.017587191625768e-06
3.970421065201074e-06
4.523010964289496e-06
5.678792822574079e-06
6.747755098022721e-06
7.988023532505133e-06
9.664980648025789e-06
1.158052996672551e-05
9.737671890073446e-06
1.298854129587826e-06
4.958012283735848e-07
1.538995407346709e-06
2.179480924318216e-09
1.205978672482485e-06
2.615244589679754e-06
4.078833245262337e-06
5.640096168219941e-06
7.086197937232346e-06
9.736504451560391e-06
9.63705808056355e-06
1.439084399521298e-05
1.318717615234247e-05
1.924858982288651e-05
1.916024816782586e-05
4.992584389597459e-06
2.214467858584524e-06
1.302620106216746e-06
2.432311317406333e-06
3.815296380491332e-06
3.703040694240205e-06
1.401472061301387e-09
1.085898730606866e-06
2.123753770895156e-06
3.025352446434352e-06
3.498219274623786e-06
3.460279752899385e-06
4.311683018222214e-06
4.759167061287084e-06
5.960223581249854e-06
7.04313023315649e-06
8.345791343103143e-06
9.999985843042795e-06
1.215609910187505e-05
1.474131787542775e-05
1.06370854752422e-05
1.614189663678982e-06
6.791620878229845e-07
1.96153749433877e-06
1.886167194249322e-09
1.219770311536069e-06
2.527723282518447e-06
3.633273095014805e-06
5.658609183659159e-06
6.212374806651681e-06
9.637847470961106e-06
9.585107611238404e-06
1.431311145218588e-05
1.270256812088441e-05
1.957820470947108e-05
1.680769200013345e-05
2.492947232091949e-05
5.509700389845064e-06
2.358259291934847e-06
1.616867162102536e-06
3.137280555931214e-06
4.318457136125808e-06
4.320119907032399e-06
1.533341533035702e-09
1.062361714527487e-06
2.08518304325326e-06
2.980731515414241e-06
4.277819822538838e-06
4.695517028357658e-06
5.087757730377709e-06
5.111872624751538e-06
6.257039219511601e-06
7.398059765120633e-06
8.734047024827413e-06
1.046032406740521e-05
1.259372491683224e-05
1.547047685968187e-05
1.887138494002526e-05
1.290117170769048e-05
2.026302708696828e-06
9.215519035192973e-07
2.594372376061048e-06
1.970412396628866e-09
1.163216722685411e-06
2.547367400594186e-06
3.295670334585009e-06
5.62041278026877e-06
5.890855307301725e-06
9.520564275883647e-06
9.422588442334665e-06
1.422607215662525e-05
1.218872501651141e-05
1.96137451411197e-05
1.658898035875867e-05
2.570898283345659e-05
2.539691598923456e-05
5.666137042451171e-06
2.440642766900253e-06
1.888269602185422e-06
4.108705108806723e-06
5.061076938939254e-06
5.088965701134341e-06
1.836814254284095e-09
1.132945337668768e-06
2.238251707650487e-06
2.644813693645059e-06
4.571430938508216e-06
5.475649630354695e-06
6.055410336868777e-06
6.414001976133879e-06
6.784055339468915e-06
7.78955516231766e-06
9.184014549406072e-06
1.095647681656139e-05
1.317487067508212e-05
1.604929698613602e-05
1.978690352597967e-05
2.424815758914405e-05
1.487711529741398e-05
2.552522103034949e-06
1.270697546074594e-06
3.535333828283445e-06
2.306033656722552e-09
1.305150564574214e-06
2.432770966473066e-06
3.659999652048539e-06
5.396285486410578e-06
6.136119731247392e-06
9.478120961261362e-06
9.05205674961601e-06
1.407039663136898e-05
1.21490587635643e-05
1.946512958843168e-05
1.578562956878544e-05
2.617357983086137e-05
2.393873658181847e-05
2.936737009535335e-05
5.646475781092021e-06
2.438145521807901e-06
2.16720347221974e-06
5.447872906033162e-06
5.895022332550252e-06
6.083781381070345e-06
2.286613269900751e-09
1.290362114210549e-06
2.397947990770056e-06
2.844076663400055e-06
4.783744766596699e-06
4.075378111793728e-06
7.328631607952231e-06
6.74491678781568e-06
8.011505087901459e-06
8.485315042596268e-06
9.704545955521606e-06
1.153885212584214e-05
1.382490080314964e-05
1.680168494300649e-05
2.057673105661916e-05
2.240494103980226e-05
2.805493368907166e-05
1.720974646954557e-05
3.274289222557588e-06
1.802302165431792e-06
4.955284545059373e-06
2.287652698761291e-09
1.429226207800315e-06
2.541834124312299e-06
3.393702336056292e-06
5.274565296086048e-06
5.712127523161701e-06
9.290713464558313e-06
9.159069077209178e-06
1.39129606410798e-05
1.162048499359026e-05
1.937257823547608e-05
1.484629837231188e-05
2.619383481161249e-05
2.409481108873385e-05
3.201699558660337e-05
2.989599056812895e-05
5.58513769435916e-06
2.413082276789023e-06
2.442959339113614e-06
7.257548577012899e-06
6.924346146430072e-06
7.387538843552553e-06
1.930655307680348e-09
1.757993809631276e-06
2.610089959253962e-06
3.583081195400964e-06
5.231628523661111e-06
4.000953585688844e-06
8.196389631315275e-06
6.573111431489019e-06
9.797501748869972e-06
9.089152329544973e-06
1.063731551222495e-05
1.224015500546354e-05
1.457135939001589e-05
1.765626377473494e-05
2.156048783584307e-05
2.338869756911126e-05
2.356830145707164e-05
2.841105176859912e-05
2.028688283229672e-05
4.250229010398272e-06
2.584501562782008e-06
7.244279774499256e-06
1.968785027848654e-09
1.194864374887364e-06
2.502778509343108e-06
3.865704786984704e-06
5.245124929307847e-06
5.384727149984769e-06
8.930308230805226e-06
8.449675141824818e-06
1.380120994342418e-05
1.140148086720473e-05
1.919098626043218e-05
1.511214124589012e-05
2.610257839209819e-05
2.196617255980601e-05
2.932746182638891e-05
3.90365794265967e-05
2.869208171275111e-05
5.641364301583209e-06
2.425315386914343e-06
2.760371402953967e-06
9.441909486736077e-06
8.241023532160249e-06
9.063764581016493e-06
2.288037668283695e-09
1.399331840630477e-06
2.898360782869519e-06
4.095723681105044e-06
5.488965933715658e-06
5.121625219378828e-06
8.700163933016445e-06
7.028437718258775e-06
1.214078990136282e-05
1.010836745732439e-05
1.280796465745015e-05
1.346236030586198e-05
1.547601518585124e-05
1.864239091268386e-05
2.266877899447578e-05
2.541979460806346e-05
2.515356569887458e-05
2.409066118497964e-05
2.880009585899588e-05
2.442259090771529e-05
5.578886316069997e-06
3.757636289966478e-06
6.386957925415873e-06
1.734859906172287e-09
9.092539396996169e-07
2.280605725102588e-06
3.370637778875898e-06
5.210753316261676e-06
5.918009804219661e-06
8.633670068092418e-06
8.100982686538151e-06
1.353667066636589e-05
1.13049835253421e-05
1.902217142623583e-05
1.486230316267334e-05
2.598804797314131e-05
2.268705904235096e-05
2.788890380005343e-05
3.591527860819912e-05
4.492956150019678e-05
2.823422159387851e-05
5.572728281638024e-06
2.484363342859346e-06
3.092305643739269e-06
1.223706442057151e-05
9.749276846179297e-06
1.122050349266588e-05
1.940264651585388e-09
1.688677934906235e-06
2.659388665460842e-06
4.190477325813547e-06
5.664929997634747e-06
5.547143070788853e-06
9.285340059009065e-06
7.273364754812481e-06
1.359483610667841e-05
1.080831531773798e-05
1.588771202157816e-05
1.627495348133643e-05
1.704095065099731e-05
1.98187879578736e-05
2.397750014638672e-05
2.892587111677937e-05
2.749984238507298e-05
2.587773398913882e-05
2.443825496517934e-05
2.830224346164555e-05
2.79719958576079e-05
7.334927809969647e-06
5.676513771168562e-06
5.308628906512786e-06
1.468811536657919e-09
8.671542188541019e-07
1.906746709097495e-06
2.504362367682685e-06
4.889252515575188e-06
5.6808697723332e-06
8.463297250597673e-06
8.204583122697262e-06
1.308234794665968e-05
1.133840804800439e-05
1.883345578895349e-05
1.447744936197496e-05
2.570835710611059e-05
2.196481684848194e-05
2.667203325919704e-05
3.357399999483335e-05
4.086745506472857e-05
4.83233907178834e-05
2.542166964538474e-05
5.861173067855976e-06
2.649583530076178e-06
3.47312862974016e-06
1.572208823665873e-05
1.147568333866939e-05
1.393449550857101e-05
1.968395222144939e-09
1.23246265040684e-06
2.903764790808154e-06
3.782249556417318e-06
5.748748897495117e-06
5.579438298056785e-06
9.681814527159428e-06
7.529464919470191e-06
1.439823236827345e-05
1.091743532035335e-05
1.980139031363212e-05
1.920404653618843e-05
2.074900361322931e-05
2.188878524050125e-05
2.548982389265346e-05
3.090297643891612e-05
3.177214301759103e-05
2.836790796792892e-05
2.672571586680294e-05
2.534148415788788e-05
2.836808623783484e-05
3.124771371272225e-05
9.630483084134035e-06
8.735924139306712e-06
4.986468735118788e-06
1.403862096964578e-09
8.636876978404457e-07
1.902482397251453e-06
2.081838181478255e-06
4.297659161506466e-06
5.161347447328482e-06
8.296290104137242e-06
8.189884148705044e-06
1.243641308792323e-05
1.111335744330182e-05
1.849623386179495e-05
1.491236901156103e-05
2.548735247718152e-05
2.249415608773708e-05
2.609693886694069e-05
3.320485811008484e-05
3.773074796252173e-05
4.37353576780445e-05
7.619910729927902e-05
2.591033735329604e-05
6.578200119748583e-06
2.94214467373142e-06
4.109992973087561e-06
2.037128077669809e-05
1.358312833040436e-05
1.724280617512769e-05
2.086576412739806e-09
1.17573523363551e-06
2.360381506267584e-06
3.192223647891565e-06
5.630746888430831e-06
5.487064952275577e-06
9.833065257356312e-06
8.337267588782406e-06
1.511135174471964e-05
1.147461033678537e-05
2.217760987068877e-05
1.802414188662109e-05
2.615164803716847e-05
2.674589488811447e-05
2.820571306673437e-05
3.28712375824543e-05
3.968007764532331e-05
3.285608190365486e-05
2.937073310593838e-05
2.785613106440502e-05
2.663557070358298e-05
2.889492105420314e-05
3.374776022086297e-05
1.250732634974396e-05
1.335576508823052e-05
5.353159744989341e-06
1.593421349363977e-09
1.051089977466126e-06
1.916608438855125e-06
2.084951573050682e-06
3.91598836070209e-06
3.944386750102936e-06
7.724343225058832e-06
8.14091886081511e-06
1.210594328992375e-05
1.127549672184676e-05
1.785098375261208e-05
1.444257301771468e-05
2.527451917981146e-05
2.257339367499695e-05
2.590528864188095e-05
3.240441591110568e-05
3.758096179761826e-05
3.973328864476184e-05
7.768147747995654e-05
9.263056143427773e-05
2.760855553451463e-05
7.831396672307143e-06
3.461098430724815e-06
5.094682346291428e-06
2.679470669807227e-05
1.617848452296157e-05
2.116242640930731e-05
2.277237590592134e-09
1.204603925005705e-06
2.439125731395489e-06
3.113301932136367e-06
5.667141747241463e-06
5.395999263607111e-06
9.800241108433047e-06
8.868493735418246e-06
1.55672552113163e-05
1.248718049910728e-05
2.324160370096921e-05
1.882431598622622e-05
3.288756859896342e-05
3.384617500931817e-05
3.463332319912802e-05
3.635559149911574e-05
4.230556761647347e-05
4.07707393476255e-05
3.440143883419407e-05
3.078623728838223e-05
2.957233561134379e-05
2.865630672437674e-05
3.020717445985337e-05
3.658798994449305e-05
1.590743287958014e-05
1.900801888742468e-05
6.290796604069178e-06
1.943156222962205e-09
1.053459749469968e-06
1.870705432566559e-06
2.197432618147089e-06
3.823480314526845e-06
3.518741161943286e-06
6.946196286741674e-06
7.097187549721085e-06
1.18808091270895e-05
1.11925622367583e-05
1.69306538662924e-05
1.446091865708047e-05
2.482675469697883e-05
2.27395650838183e-05
2.52157491497325e-05
3.269017382317041e-05
3.644589830905321e-05
3.963173590000327e-05
7.165365476681916e-05
0.0001013778269720634
0.0001091834102239692
3.18149218423212e-05
9.657060797276246e-06
4.206817586136414e-06
6.709490128205914e-06
3.584915990832976e-05
1.940715620918745e-05
2.550981313179547e-05
2.345849668605713e-09
1.282619330353738e-06
2.488803333603782e-06
3.159044248823137e-06
5.395052810799402e-06
5.180979382341559e-06
9.711947909385536e-06
8.493895518177582e-06
1.568407161947163e-05
1.343726672886499e-05
2.409726105214953e-05
1.929103942896483e-05
3.659218601364126e-05
3.318011173698885e-05
4.4130194248284e-05
4.475774697207125e-05
3.894371475351865e-05
4.494921243670206e-05
4.236618751600392e-05
3.60777604734809e-05
3.281880116391551e-05
3.20410487817411e-05
3.143870361625441e-05
3.223456584890782e-05
3.849681441834378e-05
1.979871099330014e-05
2.349868164310316e-05
7.853450432361575e-06
1.620245893652711e-09
1.005326656909145e-06
1.679832375782736e-06
1.880727150127163e-06
3.739637920455114e-06
3.437873085600668e-06
6.565568450159152e-06
5.488436869897501e-06
1.138841411058467e-05
1.053788288626678e-05
1.668497931380662e-05
1.459655078368087e-05
2.333766343014042e-05
2.301421229768192e-05
2.471953906845391e-05
3.236209840926008e-05
3.726694200034985e-05
3.817836044179132e-05
6.97235708028495e-05
8.967982878657093e-05
0.0001324205719950008
0.0001298295217307171
3.800797902827988e-05
1.229708085807945e-05
5.285674678380629e-06
9.108937339049182e-06
4.881110467488918e-05
2.282867950415583e-05
3.00906823313775e-05
2.420515958627821e-09
1.331683352428688e-06
2.556142334333148e-06
3.209032221704597e-06
5.569824471270285e-06
4.940721577032643e-06
9.659850783695966e-06
8.300472072631416e-06
1.579160476272818e-05
1.334947935504258e-05
2.463431152991375e-05
2.096024035071749e-05
3.80736330739073e-05
3.33197214064703e-05
5.610868344117995e-05
5.732277364613165e-05
4.946765056331817e-05
4.083643672394687e-05
4.508595859027987e-05
4.319955105027359e-05
3.825028393911315e-05
3.580159952179336e-05
3.533755140998369e-05
3.530592986856506e-05
3.507572796699921e-05
4.100964600408737e-05
2.3945298838003e-05
2.530384681917523e-05
1.026070653432715e-05
4.623892547231037e-10
6.19268854346121e-07
1.395262683644344e-06
1.592246858292682e-06
3.421585173482652e-06
3.725641916952173e-06
6.236099976300699e-06
5.631223258817205e-06
1.063397041217646e-05
9.583925571718848e-06
1.674738887404655e-05
1.525756285856461e-05
2.103277602425749e-05
2.36726294751487e-05
2.397975345210426e-05
3.175504441373735e-05
3.699383777393727e-05
3.915204793071904e-05
6.602786445135696e-05
8.454786547506319e-05
0.0001325044142853999
0.0001702711848076657
0.0001599004098046524
4.752342202164564e-05
1.595326374356245e-05
6.840849602687731e-06
1.229297224582783e-05
6.694110276057984e-05
2.74285883015965e-05
3.411914762005153e-05
2.476892895945181e-09
1.355559249689331e-06
2.548837280444534e-06
3.342000594055402e-06
5.741469659872218e-06
5.132607827165593e-06
9.745780120650356e-06
8.116546943990214e-06
1.586486248471622e-05
1.377825544189516e-05
2.510578641923935e-05
2.124735416151554e-05
3.926424889883515e-05
3.472253076182319e-05
6.203288327864755e-05
6.478860644359011e-05
5.924913538727488e-05
5.163710279351646e-05
3.852903305121735e-05
4.561683089023781e-05
4.427447703923342e-05
4.154086356961912e-05
3.964029186398425e-05
3.968503536188818e-05
3.978201048833045e-05
3.983052630993441e-05
4.482472236696862e-05
2.922304582235458e-05
2.622367490352755e-05
1.088730695371695e-05
4.366985826778535e-10
2.976696224896562e-07
1.121771158693379e-06
9.76776581240818e-07
2.916916313147091e-06
3.228747405336236e-06
6.044513489209667e-06
5.979782538226186e-06
1.01343204333816e-05
8.997732695160488e-06
1.650651553255287e-05
1.642582327698788e-05
1.93137171216751e-05
2.553021594118531e-05
2.291803077772041e-05
3.110080661722973e-05
3.66640170805114e-05
3.887380332155899e-05
7.000704752166671e-05
8.074774020440072e-05
0.0001255133505373277
0.0001701416127309787
0.0002155088428260031
0.0002158028223970868
6.083565139436268e-05
2.095457037917763e-05
9.049130211095928e-06
1.578761124757695e-05
8.641183744201108e-05
2.601351922197945e-05
3.042286546525071e-05
7.314851452552291e-05
2.540378265262063e-09
1.354601557220105e-06
2.599064953291152e-06
3.275952164847057e-06
5.840311982541331e-06
5.520512460130027e-06
1.004989018677445e-05
8.184775377397159e-06
1.595217716429271e-05
1.378903424262492e-05
2.54055179558995e-05
2.21109664101063e-05
4.022893404450931e-05
3.587733548332476e-05
6.444042218547232e-05
6.47632428654615e-05
9.616971173947844e-05
6.506289364672885e-05
5.186701559003399e-05
4.331376243619297e-05
4.532951463956337e-05
4.694084023120148e-05
4.536709345720467e-05
4.45778168094599e-05
4.441336379861092e-05
4.56209548428944e-05
4.568963586072765e-05
5.160177316037593e-05
3.361625852962621e-05
3.027169280488139e-05
1.190498303562309e-05
4.930276873299099e-10
3.789997643268509e-07
7.714081460869364e-07
7.815665915979238e-07
2.211918778291047e-06
2.613742365839308e-06
5.742177729521552e-06
7.451411088866615e-06
9.374638179203888e-06
1.100644138042645e-05
1.476748928633715e-05
1.651818417829114e-05
1.78098547167708e-05
2.609976237946615e-05
2.265625048122275e-05
2.977077954702357e-05
3.666294854378655e-05
3.828008685694304e-05
6.929682510905203e-05
8.714923422606594e-05
0.0001213477653509269
0.0001468723357536083
0.0002152415103000569
0.0002665200432122413
0.0003139386891099418
7.994078356856093e-05
2.768642885152435e-05
1.214412374376544e-05
2.548690482043924e-05
9.704560838206885e-05
5.024335506162528e-05
3.080501367042165e-05
0.000110877845183935
2.554377990717808e-09
1.392976597494105e-06
2.681988135712125e-06
3.234927763627254e-06
5.890238181967452e-06
5.701294428260502e-06
1.025525452722995e-05
8.431528347242382e-06
1.633575132614472e-05
1.358233324900961e-05
2.580892204776667e-05
2.219598765618774e-05
4.111235101654442e-05
3.720577175047357e-05
6.646305628991605e-05
6.49985890736446e-05
0.0001076928568827657
0.0001043167528878181
6.246106805624212e-05
5.376790647076067e-05
4.22771899502043e-05
4.796680137434599e-05
4.979466364206853e-05
4.997771546964786e-05
4.951037063950373e-05
5.067039832475204e-05
5.279866587172963e-05
5.395610440582676e-05
5.438632576309839e-05
3.509399709726829e-05
2.192727396720351e-05
1.220788157042852e-05
5.917107881046566e-10
5.152297137973202e-07
9.629606352891944e-07
8.019197072281684e-07
1.978738941562969e-06
1.617624878334497e-06
5.229961965345716e-06
6.231096395388759e-06
7.38557349360868e-06
1.124894199216827e-05
1.041643766703734e-05
1.814011886094359e-05
1.620522306513673e-05
2.645427429970615e-05
2.30338680988054e-05
2.959833822246699e-05
3.665533150224207e-05
3.806801282123075e-05
6.755394077767781e-05
8.572177539695585e-05
0.0001305941297630874
0.0001533147729545785
0.0001860816382905554
0.0002661141244459481
0.0003221053547903716
0.0003777258892364784
0.0001073610931762202
3.66066225811758e-05
1.708954446341962e-05
1.087078889581081e-05
9.268493444924752e-05
2.044048810696098e-05
4.733395541019857e-05
3.543765099226138e-05
5.023749208341465e-05
1.304527731745538e-05
0.0001153372986372335
2.575764579505408e-09
1.417770873738781e-06
2.707324721725557e-06
3.600522815041512e-06
6.085580865614313e-06
5.525111683155258e-06
1.04719007409774e-05
8.621885939492196e-06
1.676034599299573e-05
1.381620591176798e-05
2.617256192848075e-05
2.248930380831868e-05
4.182895646497001e-05
3.767165140859805e-05
6.823555398930494e-05
6.767497280289456e-05
0.000112060638574591
0.0001395112694763794
0.0001136768613515756
6.892443427674124e-05
5.363197637316552e-05
4.668070141627882e-05
4.947743028629043e-05
5.346660542434301e-05
5.412416103100474e-05
5.544183712354719e-05
5.792924798636123e-05
6.228518059578151e-05
5.87800682311414e-05
6.339106554389696e-05
8.222817946094925e-05
3.78420344698979e-05
0.0001017286153217932
6.777743263608616e-10
6.006926158302906e-07
1.111082294250683e-06
1.189173283174487e-06
1.771008330634294e-06
1.630025232036018e-06
4.142618747254048e-06
4.910317810830851e-06
9.299591868767635e-06
1.132094486476422e-05
9.914373553828822e-06
1.69332233338886e-05
1.393780692374583e-05
2.646987797243213e-05
2.380592415494506e-05
2.919516911251597e-05
4.021656101185826e-05
3.784770153533542e-05
6.74158543447007e-05
8.325331266536856e-05
0.0001298851232958957
0.0001677799418897209
0.0002083854957268332
0.0002200361174945223
0.0003215113778096903
0.000381000385990054
0.0004396422515433663
0.0001464186838990657
4.843886622928218e-05
3.559132283067873e-05
9.17304588843399e-06
1.248701797978354e-05
0.0001118071249495064
4.606025265090758e-05
7.670723495912916e-05
3.332570555661409e-05
6.42224417004529e-05
1.704243279470941e-05
0.0002138814848916057
3.093910925503792e-09
1.414325519866875e-06
2.757550024434989e-06
3.668651705704864e-06
6.194400677556702e-06
6.049488529506615e-06
1.063559463959562e-05
8.919639894431185e-06
1.705936619957644e-05
1.426073847447414e-05
2.687689041139619e-05
2.207160363464336e-05
4.276689150935312e-05
3.75390919161096e-05
6.992034681341758e-05
6.90160990841134e-05
0.000115661810289954
0.0001450599650290686
0.0001807195884944272
0.0001231265608977447
6.680036137075042e-05
5.763127963752108e-05
4.66165630277318e-05
5.178562723123693e-05
5.654937857634964e-05
5.916632860345033e-05
6.2563617537616e-05
6.755732130210644e-05
6.634887510277275e-05
7.036132516188346e-05
8.772354288847511e-05
6.65661890661111e-05
4.339613888765768e-05
0.0002963452429635264
1.986876707357122e-05
7.002254870868611e-10
6.383903693842339e-07
1.199280042669304e-06
1.240666589530037e-06
1.977751894370494e-06
1.500936326732303e-06
3.569660166579935e-06
3.150216146624473e-06
9.183111638499723e-06
1.066876443083923e-05
1.039719391219409e-05
1.607921257598806e-05
1.492275730597751e-05
2.397232626668043e-05
2.32707143021087e-05
2.811498671981011e-05
4.194387245148131e-05
4.102241419560523e-05
6.744242254351146e-05
8.344380982824948e-05
0.000124983545625056
0.0001663586218172689
0.0002121856668079844
0.0002556591591915893
0.0002670459089754921
0.0003365092695776767
0.0004433036421546964
0.000504081281269145
0.0001989498482366399
0.0001388289608155549
2.715225541745841e-05
1.562718806750552e-05
3.421512375882779e-05
0.0001273437540220192
0.0001454270119103619
2.045428678340309e-05
6.984666294561947e-05
4.931868308910695e-05
4.184522603289005e-05
0.0001394797975208203
9.913697490953774e-06
4.77972559703286e-05
3.59674935783275e-09
1.56298790123857e-06
2.881573454541562e-06
3.627867629724423e-06
6.329699377414848e-06
5.808346834289409e-06
1.093289398883379e-05
9.0411661917738e-06
1.744994945816724e-05
1.428326207514585e-05
2.741123757105618e-05
2.334161750368569e-05
4.357804299633888e-05
3.811978125860113e-05
7.159987966378752e-05
6.977260502227426e-05
0.0001190723460127196
0.000149716487001858
0.0001881859714689835
0.0002236565318605698
0.000124378108132637
7.456669894609087e-05
6.06964248414757e-05
4.877429604184468e-05
5.412088093091706e-05
6.019447105476482e-05
6.548595285792618e-05
7.000313060853709e-05
6.663023142632165e-05
6.366470586625602e-05
8.24692308972411e-05
7.237026553978668e-05
8.970556461963215e-05
0.0001059927999499124
4.835567753323449e-05
0.0005516975389012819
7.890240067505619e-10
6.410207883932888e-07
1.302130126063662e-06
1.397723668097411e-06
2.279695655004375e-06
1.520934251880431e-06
2.980309443369494e-06
2.731203411159326e-06
7.440267660430756e-06
8.469274916905506e-06
1.313871891650667e-05
1.644146619989029e-05
1.51781065236978e-05
1.955563818591812e-05
2.419631784414999e-05
2.554634301067313e-05
4.390777767470865e-05
4.394776888874738e-05
7.200873321460986e-05
8.419735758996561e-05
0.0001253457239114387
0.0001550421315239897
0.0002110869743771336
0.0002622412738071838
0.000317209056601143
0.0003217496254004514
0.0003534650897748714
0.0005062768257425638
0.0005679738341651933
0.0002728036916776972
3.895305025875484e-05
0.000131696290229266
3.759301743941655e-05
1.82922429592729e-05
2.167335073155137e-05
0.0001560001195973591
0.0001221496064761003
3.397422076864383e-05
8.201568337286634e-05
5.749785395020964e-05
3.639544889576435e-05
0.000231348421729795
1.454233538326199e-05
3.709974285470971e-05
2.860064591730936e-09
1.97995217433689e-06
3.151555169977939e-06
4.164515246547242e-06
6.47357076838853e-06
6.006996064629602e-06