/*--------------------------------*- C++ -*----------------------------------*\
| =========                 |                                                 |
| \\      /  F ield         | OpenFOAM: The Open Source CFD Toolbox           |
|  \\    /   O peration     | Version:  v1912                                 |
|   \\  /    A nd           | Website:  www.openfoam.com                      |
|    \\/     M anipulation  |                                                 |
\*---------------------------------------------------------------------------*/
FoamFile
{
    version     2.0;
    format      ascii;
    class       volScalarField;
    location    "6000";
    object      k;
}
// * * * * * * * * * * * * * * * * * * * * * * * * * * * * * * * * * * * * * //

dimensions      [0 2 -2 0 0 0 0];


internalField   nonuniform List<scalar> 
18230
(
10.42700436763754
1.109312015029254
12.71253093011504
41.88869521844288
0.4935666461340305
8.973170643029201
0.3839255373553293
42.60125435478756
46.63864568587017
1.101667770586253
2.784235516423999
12.34675871976416
0.4906264117066873
6.071624500501428
48.06903294626019
48.63798865863969
1.575824754516552
6.232346147190253
3.689158194787492
14.27522357503178
1.148971872560632
3.407969144801735
11.23113057218076
43.13373956232116
48.17635356975862
1.353508559299412
8.504348177253091
5.017445715071705
3.74423578175609
14.83859733518474
2.097208365402851
6.78026354287579
5.504586848234468
11.60720089138535
37.46179614779753
47.37938909885209
1.640690277223436
8.325625877475323
4.893367979481787
4.412104324311183
3.654806964595281
14.9635879831738
3.081819233893627
11.20712048374773
9.204488317274595
6.727226095672
10.06883451685134
33.34379394603765
46.69425621854244
1.647874384181282
8.771988395788016
4.977705543776963
5.267818129378266
4.05115162215517
3.631268652152406
14.98990904894643
3.508133901619422
13.07266771513489
13.0218325750831
10.44393379343895
7.776116353127235
9.991358255680352
30.15652661656046
47.6999305622443
1.317123567598294
8.986761054404683
4.936539473935884
5.469208243279351
4.771388276321003
4.136861304792091
3.700835358515924
15.24317557975845
4.016346726382713
11.33918484679983
15.32023669063617
15.03298047891214
11.99465228619431
8.901490160370523
10.48579809069577
28.90215446207746
51.64997145998567
1.268990597473489
9.153243924898016
4.929591482578586
5.472303682851013
4.884940394728825
5.131586467384373
4.401061050381621
3.838786467553941
15.64703688300803
3.651061834707005
13.23857034817783
15.73465629041643
18.25255109799377
17.46021117056946
13.72298666710463
10.19041995350634
11.45063604504562
28.62949779537577
63.01566039296154
1.138991452194409
9.259563271552381
4.871087439553854
5.414030695828418
4.868962770616705
5.324441282358759
5.391320515983118
4.754323223464187
4.047934138618312
15.87271530703144
3.468708649466708
13.2834748386551
16.35750591596218
19.52922313496442
21.10587530259527
19.97176339784016
15.7353870318314
11.70795036172133
12.88056811634286
27.9209691089607
72.63648273212057
0.9595243505663742
8.879760287621
4.897182310280214
5.335498533273017
4.90906596992237
5.362061591079633
5.492598850546439
5.86072001343083
5.18170574199105
4.321005935605172
16.08134468429273
3.698320732331236
13.00080878500287
16.34922990228497
19.80736803687344
22.62331566335205
23.9128072251881
22.3983991690467
17.6288770484305
13.45173324217871
14.59782466097251
26.40311040265391
69.40394198329788
0.8116588891054115
7.806782092586539
4.857752978768193
5.246567740577353
4.953166701582002
5.413916883858557
5.579780160989202
6.01897540505441
6.307703936856901
5.667365289583378
4.656159983760389
16.23711831255894
3.699340510338585
13.27138272023674
16.24117440976082
19.86877478494721
22.70705684793998
25.68497091301493
26.48982730856771
24.75149702159511
19.41802794994748
15.39267901018495
16.59369873191719
25.15161697612788
59.25611013823202
0.8510290862236428
5.760617595356508
4.716560136300742
5.170994977313395
4.990476087256135
5.466962458340538
5.671338119269926
6.140709175948865
6.428600634970026
6.874038574616152
6.214061009286776
5.05230456822663
16.43013238880214
3.381783023060293
13.01995101262308
16.28454210727755
19.77865098265305
22.69655026484843
25.76923355937158
28.2017009395512
29.09682914837971
26.79798863095049
21.24480508222117
17.50092859065358
19.19953401699517
24.61888462296949
48.00698379136077
0.9197071682915239
3.669623817430939
4.252003891287951
5.040085193500954
5.037119652814766
5.545766804383517
5.782557593165906
6.263709315941228
6.568258697660437
7.037926032147928
7.379667816576235
6.789168863792804
5.500141163524924
16.66419106889382
3.783324900628787
12.48055302205658
16.10842225299002
19.76119550385059
22.56450502727724
25.86092035090332
28.3419570041783
31.01089753791895
30.83310356270674
28.69044631005264
22.75034643565221
19.64172205417329
23.03104045423263
24.69737124311624
39.04229949832468
1.076303946872959
3.692001790284311
4.054941459864253
4.89730012042662
5.076929075681682
5.643416667243428
5.902221494157515
6.418784475810178
6.71786730482335
7.193579749712216
7.520340242970015
7.944256928138556
7.361489871379936
5.985410794489479
16.83332024672723
3.889735548588367
13.34781786423637
16.03431337424128
19.57222763194995
22.5535447912364
25.75802162063336
28.42356143401914
31.07382163153579
32.74610800017186
32.79024499367151
29.6653685119778
23.95007905213955
21.86338990053227
28.32086210099174
27.02383923641231
35.1879799487518
1.457436791803354
3.58975435910691
4.524473047162645
4.861117907252116
5.214592869158421
5.757619162058917
6.05750438966754
6.58855217625566
6.902935759341569
7.364645866145668
7.688247959891475
8.101303536520328
8.457727519318084
7.962455207796379
6.509084429015712
16.92881221713193
3.771751132039929
13.78611273502868
16.32354358033055
19.5831621873363
22.44071374778277
25.75563731267348
28.2341259864084
31.17857992279814
32.88966180922815
34.57474440611037
32.94726738058074
30.55983509415044
24.66103924884632
23.8343920398246
34.01289552747946
28.97013035841258
35.8250024513889
1.497022073222036
4.752499367032817
5.157345620296648
5.563047634035875
5.605770466485758
6.001963059086062
6.249652210450474
6.794428170964302
7.102055981961538
7.581728220370492
7.867669089150958
8.278756429803765
8.593129228948428
9.019184853327278
8.585004024153601
7.065740829225493
17.00117055042383
3.804347741700554
14.43719442172802
16.56221721850712
19.83041405469402
22.3136871046237
25.68695527607709
28.14470835813199
31.05238905523869
32.84393875015233
34.78389859819701
34.74717840514224
33.84942810866144
30.09656004109364
24.62697868647745
25.27247100702798
39.21573263099431
31.15668410290887
38.3790686846442
1.534847401096586
5.602872668875801
6.134085331368372
6.497316150903338
6.55847162791792
6.665416208685022
6.609584967708287
7.049702745280491
7.345294389614181
7.816757381244329
8.089760721775114
8.471799579061972
8.773858050184769
9.160906825091304
9.594696948600024
9.254770842294482
7.66396541195579
17.08827544156692
3.325966841015834
13.96582921109798
16.31678966095565
19.99214769177959
22.44618836244687
25.74362863983512
27.97526400134278
30.89782889151304
32.66367383888124
34.88146773933607
34.85692789561882
35.57140209737394
32.08792256683573
29.59276855472761
24.40332717067894
25.64426312848321
43.7932995494828
34.97626848781931
41.09208262043227
1.534834817322984
6.011376700892783
6.558812697371852
7.805366896343632
7.810426391638668
7.6592678203868
7.4768562048797
7.498487668869491
7.640506325387263
8.101367078736287
8.335494034576403
8.70748266556549
8.96674821567693
9.341098825556164
9.725258885573707
10.2139067607379
9.978012814343669
8.312460592625962
17.37435173949039
3.279236837604868
13.15061501390879
15.76441028729435
19.59318163390158
22.26760708650377
25.73283775031888
27.82934075986686
30.69898023046489
32.4639022538143
34.74939128893342
34.92629776014743
35.79433360045778
33.58653759723467
31.51642998840929
28.2093049254966
23.56180023823336
25.06552844149322
47.59721261159063
39.71234045765321
43.04392935112517
1.646545267146317
5.771424029930545
6.858651953361159
8.350368537682035
8.849637922516422
9.230377392157688
8.710399043470616
8.497205808694806
8.144401943909754
8.44622286695353
8.622644426006445
8.969234477916901
9.194757278941001
9.538854908391585
9.908311115511713
10.35073635625372
10.88630961777801
10.75826851568551
9.022929817563067
17.70179372252375
3.699621684557015
11.86112386116942
15.17922343159433
18.7401594241009
21.59400576620799
25.25392607522239
27.78561540688708
30.48407826107909
32.08871105534249
34.55190633338741
34.61080220375658
35.92126385822236
33.66582991439426
32.98491965052038
29.1981340872975
25.94282649494828
22.05637639601118
23.70294218852144
51.09152952703892
43.8769469862023
44.48145281634962
1.99505576789003
5.446708465347004
6.851682547571605
8.565721948647427
9.223074831675184
10.67605450338431
10.23052590668315
10.03827067438232
9.23977995079437
9.031915930072719
8.979404156005744
9.274913064972871
9.450474557927175
9.770708263610681
10.10888672111122
10.53266712275346
11.02560214563273
11.60997483728926
11.63905110431401
9.803217695884758
17.85172964338421
3.747555623473036
12.72386675281882
14.9394989771919
18.46588819987284
20.86929388933631
24.51303702711989
27.17936960715154
30.2348336144749
31.74132062218882
34.31018216364306
34.3299527780832
35.69693233708922
33.66130861403761
32.97956921708482
30.42402454413998
26.19336518328923
23.29652240562396
20.15685112251204
21.84071387462031
54.22641526914037
47.54010447855651
45.62017607750435
1.724723551768292
5.785089564411151
6.836135717831092
8.415621693201999
9.435538846407511
11.08652946894183
11.36387515447779
11.83338008317723
10.81616244739443
10.27685516165922
9.573599621011125
9.650026037841101
9.748573857319803
10.03366537006162
10.34132732278201
10.73782196413663
11.21287120992442
11.75483498337934
12.45326926100111
12.61631352813972
10.64589013422883
17.82096801728035
3.303806965814373
14.58236258105178
15.31823215522316
18.33551663154712
20.63686781200986
23.89691182987896
26.26983961110877
29.82132474982552
31.39735756856702
33.96568625342011
34.03597978998833
35.35674015277731
33.49287461386023
32.97301959586534
30.39447602383796
27.12302892439409
23.26533098922652
20.60408563848382
18.07161153314551
19.71474805473964
55.98635911784222
50.58673834887774
46.37033194298181
1.971233399944478
6.024522107328536
7.084777975868128
8.34840286690666
9.500322813415584
11.02417141531117
11.71784472997972
12.9316065248758
12.44845929678977
11.99961975053931
10.80737993730365
10.2680262635047
10.12314401852912
10.34019103407324
10.60130966397291
10.9736812708541
11.41892661751749
11.94438467809278
12.61331328546445
13.38001341498709
13.69632326139303
11.69410446106954
17.79167860741292
3.018779074009014
15.40170121050173
15.80376662567919
18.75089606996565
20.98291207320594
23.5509071008568
25.69464407462967
28.99809681943061
30.8217788453027
33.60901556358177
33.65029496755976
35.05280142538085
33.17989890667585
32.65178933933488
30.38065838118675
27.04299916386738
23.96081679013244
20.48303100882407
18.08380504491614
16.15851151885283
17.68490661797044
57.1146979414172
52.73911514379422
46.62194742438554
1.607069042079755
6.142605880033631
7.303723231363995
8.598399042773456
9.571772749286636
11.14787119955325
11.87809263002301
13.31900531273234
13.44379917329362
13.79774589781245
12.46842237488251
11.57333283657981
10.73783388137484
10.72012992570538
10.90863100112039
11.23602550832333
11.65488929281098
12.15155184202884
12.81155011861491
13.5562143678971
14.39922619989965
14.82640010737746
12.98497660918181
17.99245808708351
2.418110451394448
13.89335466256888
14.88671738532452
19.1084722932731
21.01583618799284
24.1561316469727
25.51284967540651
28.11919991760102
30.046170789535
32.93331362569296
33.33063488175389
34.69278075344759
32.82177897649557
32.32967566926189
30.17687378624488
26.97849489052117
23.88265641912299
20.96357008637176
17.96593352159763
16.44947983961596
14.79617401598551
16.00188272384984
57.86393585240436
54.04869287018749
46.52119002371888
1.624266199870316
5.847429319401147
7.375123900635214
8.892004257390335
9.788521471056482
11.32354955023213
12.12925634510802
13.55418501330484
13.83714666094634
14.92021655577998
14.1340399710931
13.37733761801056
12.01211581855877
11.3452665497747
11.28977803739429
11.54513731818456
11.91784330864779
12.38800507582126
13.02447057995049
13.75688111072269
14.60123618529598
15.46844746566853
15.98467738029087
14.42239230312844
18.59746380166009
2.123782065715111
10.85896805420875
13.67707345838447
18.07138719715964
20.4176692373605
23.95395183840728
26.23932913920705
28.03074188692706
29.15947208408267
31.95448631388179
32.75348922292371
34.21225309799205
32.47580599282848
31.92573037500629
29.89185370470402
26.76429104425056
23.81600217957844
20.9110909493857
18.26297042214539
16.70441940555262
15.74007244428315
13.95110556028722
15.14585298049995
58.4917052379537
54.71453795952526
46.23615236546753
1.618083857446154
6.391978052862402
6.936048463169739
9.1206836043214
10.00004083743805
11.58003663628288
12.34190149565259
13.71005024395335
14.16602309544125
15.31146448708599
15.22536914092241
15.25470566445678
13.76580082610543
12.65587105605195
11.92035068200678
11.9220802204296
12.22709960958878
12.64975870746069
13.26690258751297
13.9749494720749
14.8101514356408
15.69816166815461
16.61517948548078
17.16591714842122
15.94570052168098
19.65378367774431
2.330914393999476
8.10158724408255
11.93040819557551
16.55230587877332
18.6594720601117
23.36144097720102
25.51180396470867
28.40918302998116
29.06299173117157
30.63380743733771
31.81696054357437
33.59873304045549
32.09598861228693
31.52098954054989
29.60025929449172
26.50624619508569
23.62083881988275
20.86705094181285
18.24429600165776
16.9593392501292
16.23423131615407
15.80725029287007
14.02261641954147
14.89164338357294
59.48867759636731
55.05036770824425
45.83251561186292
1.660379927897771
6.292930785477333
7.242702352036014
8.806193613677019
10.16343527252898
11.74140935058727
12.55530754485211
13.85739773527304
14.4270332649599
15.55777827812739
15.646865909301
16.40995059123165
15.49140973938984
14.49052127498381
13.19610259219298
12.53992509246078
12.6126958990463
12.95391723456901
13.53336288090564
14.21519204726358
15.03623624630414
15.91463930551443
16.87813215262046
17.83566747861992
18.38485694917582
17.51654035860982
21.08235758493491
3.698056919633296
8.830075474277509
10.89673200963219
15.23114435986652
17.45933611589316
21.43441503315137
23.79971285546041
27.66522829300069
29.23310241954609
30.29322921560711
30.44406069921783
32.36700706791014
31.49375462918358
31.00091062241485
29.27982952086073
26.22434137016071
23.39626127354651
20.71066755821487
18.22038308474922
16.9674195595877
16.43640782422612
16.45174772603172
16.41289917016515
14.51928745244458
15.04657327144216
60.95863064660211
55.1609658714716
45.17986188519824
1.660052245685826
6.209920957097915
7.235229033952712
9.038337950180374
9.846000690980798
11.85327414394988
12.63379922846538
14.11514336629463
14.57209087882858
15.76955925093723
15.95214318437552
16.84459265440972
16.60456676300652
16.36794440130857
14.95086496864806
13.80482485277347
13.23255202292479
13.33849825415431
13.84341611178185
14.47872918347673
15.28060131985874
16.14660757469156
17.11110065532331
18.12916226650574
19.12751614720431
19.63583948329458
19.13593211808201
22.79436228394851
4.300317828279719
15.05920866815496
11.45601138410403
15.53855266773579
16.89691495967049
20.2220075700709
21.59959729103011
26.2015920513022
27.79620003817109
30.31596959527946
29.80346210605386
30.80036615499355
30.45013830357525
30.25278558605197
28.85839831937655
25.92243656212219
23.1435507763839
20.53605167065921
18.1066368534053
16.94713135135131
16.46141050835569
16.65924854530587
17.1806876702647
17.50482078271079
15.53623584465921
15.56372204400684
63.21989778888909
54.82461511690832
44.0060371666511
1.663394857171331
6.083553681786339
7.260135349984982
9.055481954288174
9.96990665484652
11.8076786363558
12.62681538877699
14.21002182787304
14.73551717220787
15.95350829416876
16.20471562581439
17.08857673480661
17.05325797615323
17.53787631102781
16.65373061849103
15.56811316739502
14.48348923343165
13.95449110007042
14.23765388073559
14.78366486398224
15.54845518442087
16.39088711703749
17.35530600124566
18.38181238402721
19.45408931956812
20.47035887443415
20.93489836635771
20.86918147528167
24.54419888674874
1.474607703240704
21.71244247889128
14.26504588582829
16.90431653629373
17.33288815053696
19.8869473882325
20.63823626885934
23.60983107757859
25.34057098023251
28.97207492675408
29.18782798922373
29.87855153033804
29.10633044129298
28.94569213033165
28.25490867864805
25.54220297865516
22.86977093347255
20.33557556617718
17.97425707742208
16.86050724653353
16.46137534481741
16.70506317176642
17.40354229484716
18.37580320523669
19.00470225812142
17.08132341351783
16.53810197944017
65.58300469084406
54.62710088846301
45.39609026699631
1.655767060137597
6.065118842183471
7.21846369682962
9.041473452869512
10.02552939451648
11.84510019161045
12.57964228268369
14.24278532823871
14.75325569259831
16.03509036638867
16.36772566277997
17.32708101949133
17.3421583888355
17.98009382123174
17.7565267296985
17.36731166518511
16.19018424793293
15.18866401968235
14.86260615210705
15.1694957083174
15.85851740044599
16.65772347664285
17.60624399041689
18.63601586189658
19.73073333729772
20.8325700737742
21.87981971497544
22.37044960345104
22.53310060811394
25.43300771636878
1.370439511599295
8.74924244027236
12.81614651422487
20.86645224401066
16.56863237414831
21.00122306202653
20.7346227455312
22.25291075771313
23.36175386468528
26.6179399073442
27.77057404051276
28.93399345798268
28.4354752378664
27.29693767711492
27.20037142582852
24.99765663804171
22.52974322253343
20.13153194828257
17.82986692665865
16.75748439739462
16.39249962896638
16.70235584625954
17.4517355983978
18.63830004725184
19.95805067363224
20.86183264581591
19.07199236226474
18.00128057059768
68.37806940603679
49.28581639370904
45.11890441951649
34.70385142073378
1.65314462118367
6.067675335620077
7.223755965524548
9.096433969718493
10.03739944264887
11.74957390462545
12.64162967367663
14.28096291119572
14.72454770060463
16.08574628402918
16.42651384197206
17.45605382041103
17.56931422803881
18.2452600828035
18.20578646057176
18.52936031493807
17.82905014173233
16.85928228882978
16.07944783622137
15.78869348006416
16.24815197263435
16.96690638473936
17.88110123065428
18.89295165800185
19.99310133146236
21.13855634681662
22.29051137125057
23.44897544147909
23.74041919823064
24.50406055558094
25.81794494260412
1.405221367858379
7.020440816828208
6.509196207566366
13.34012368735564
14.71948320967308
20.94282295708773
21.38885440338219
21.73683244250834
22.59808318128391
24.09236491139057
25.95816663392837
27.45645084977366
27.89588545635866
26.3343767301084
25.81035207231301
24.10778957844602
22.04662456426367
19.86840460004906
17.68168435347581
16.64365634007993
16.30799820950585
16.65004291526552
17.45082951662119
18.69252348443848
20.27255763773141
21.91225839648664
23.0649509980266
21.46211030928298
19.88244368704371
58.97464831032627
76.35735581908204
43.94790771557305
36.81233645276441
1.68380093752188
5.950725354027291
7.203972417295097
9.169805432527244
10.09372633723271
11.78766099621724
12.59514799366492
14.32034182173946
14.78673330033154
16.12142900218978
16.45858320379733
17.54659829082242
17.71466379620505
18.45345111069739
18.4746126564738
18.99133539513775
18.90738811364445
18.4995304658801
17.71598953716452
17.0005754247571
16.87817430365552
17.35745872798082
18.19870606978563
19.17494487300218
20.25494997205825
21.40845164731063
22.63535493871387
23.91846965349694
24.9738271191418
25.8454053430698
25.6423543526694
27.42082379893735
1.521629448844817
6.021477207466305
6.318096446837961
8.01644090713685
10.52458772892219
17.86220613425466
19.42277585151525
22.73506163156411
22.86797387391545
22.83602632896811
24.79769919840898
25.17544885523012
26.95111311228161
25.59983501683982
24.98287301875162
22.97976534899167
21.24594496727678
19.50052844525713
17.48753423840689
16.52793947166785
16.21687329113512
16.5750012174618
17.40315761995728
18.69183868604177
20.33912373499229
22.29373310314674
24.27096309504552
25.55415383627459
24.14395816162415
21.96228403317303
71.85207265432511
31.09101505490021
71.86813135199058
49.86882529468653
44.18543022663554
32.23205691215798
40.48529078714531
1.664794100227032
6.132172814142615
7.14026096775471
9.052789614971442
10.14641258736687
11.92146665516645
12.64026987954218
14.27500257969359
14.86771595410981
16.20762426992221
16.47149850704542
17.61758117301476
17.80394481287431
18.62294056517042
18.68813559909592
19.24841605515614
19.34821839886053
19.63373419351349
19.24503143249354
18.6045858577649
18.09800654963974
17.99647286249846
18.60481479006599
19.49894876635726
20.54103148815843
21.67916600470899
22.92361029031476
24.30991864669629
25.52073816599064
27.61626820534806
28.04629750559996
27.96091917226935
28.23282387526557
1.662458802793707
6.163711719319448
6.600349890726897
7.712242345402521
8.187864308200236
11.80370509033389
14.88403440892209
20.93824651239318
22.78485127638083
22.55184862968332
23.55654508970884
23.67636032782572
25.28812282052622
24.67582780579533
24.31451738744795
22.4009285919765
20.25886488701071
18.8771008091164
17.21654739130626
16.37960576964831
16.12521085937038
16.49816558480898
17.33285233308134
18.64249855197695
20.33870490875271
22.38554056941647
24.73162692499221
26.93304164842365
28.3810557548177
26.67582664259927
23.06931082998211
26.115090265063
58.7219303875311
29.30542479498628
84.4141784732339
44.25400609485266
48.04262047948441
33.6085712537276
38.72791564464512
1.819095824478385
6.182256323256158
7.258961955097494
8.992600191219559
10.12444959481331
11.8618795051914
12.73475154140035
14.30607149007652
14.86267395637846
16.27329357435677
16.56777351169464
17.70411224553299
17.87823892835664
18.76545562350921
18.85391590576562
19.48024668492635
19.60679942713941
20.07607301849143
20.305747856551
20.16474665786465
19.69053356681851
19.22704761597893
19.26251689499438
19.91837870168762
20.87265101703129
21.97373556613048
23.21260604255429
24.62618096994065
25.97348391641646
28.25975906244269
28.42282676159334
29.08033812726116
29.33486390032293
28.5803637204257
29.17529245744724
1.643666238336978
6.700693376113681
6.901925384123
8.422563289749807
8.270268495412514
10.00961900296436
11.5214573105653
17.10184871841833
20.19281179617255
22.9276512785766
23.1976506056538
22.45840285914654
23.29494822233042
23.16608868407874
23.34987871823368
21.97144631162294
19.72168937030381
18.1238458506556
16.759712876361
16.16605271293828
16.00349600160161
16.42059411974477
17.26299546661884
18.57593334211033
20.28650050532346
22.3849307980938
24.85649129012477
27.47526086597267
30.10686116862198
31.59108556780637
31.2063131401302
28.13333923649733
29.42305471698866
70.91396585623247
31.748553412688
32.22740267955129
78.97351866578796
47.70858019921135
52.00505102294274
42.52905086615734
32.10218090024225
36.83024001238523
2.127626770052681
6.038289043398572
7.338078488718871
9.07992955510978
10.08965993221644
11.97095448501766
12.73333280257723
14.37951246991854
14.90950509085194
16.31558588723369
16.65854865913161
17.77253775516231
17.94814874079371
18.87799631018349
18.99560399125208
19.66887618813671
19.84635080755228
20.3372040979619
20.73189771854096
21.27748738429953
21.19462767967272
20.80794723044874
20.49616456982108
20.58835154693947
21.30774361279105
22.31944835526665
23.52728554406403
24.94052993468785
26.32782483437681
28.85258751011569
29.57004207217547
30.1694496816632
30.39924848132905
30.34981975215631
29.93660211814178
29.64496533797364
1.770215408099303
6.867020077897627
7.34366848152411
8.803577359686717
9.058129559407641
10.38829517055074
10.12986148255528
13.24321595881276
15.92870656983677
20.9865916132682
22.67602677350696
22.29762697153916
21.96649709832574
21.79463453820188
21.6508092744256
21.30628977089288
19.27737545814313
17.73088194607958
16.20918883017781
15.81316726340171
15.82805336173044
16.31670721985805
17.19682743650571
18.51149242033406
20.21954688773615
22.32815809896739
24.85315264875952
27.62883284238766
30.83688776290113
33.96915620681587
32.8806672878863
34.45178778163068
32.19372462985499
31.05996633047002
30.42047292113377
47.00941030480998
30.88387645511274
35.82974940470304
87.36539273028727
49.14965233807836
44.79982785350415
40.45549912562406
35.2126547213624
38.07241739713681
1.642228973053839
6.35961141137915
7.421003684515935
9.01141257145412
10.13194276696026
11.95111120005036
12.82598010679333
14.41171017891774
14.9724589068303
16.3499044852486
16.70894157443042
17.8802384000613
18.05037214299078
18.9772620400249
19.12204647359344
19.82297051217258
20.04304032140849
20.59066353266419
20.99740714979704
21.72142075051637
22.22930637241078
22.32353031085562
22.11433251630317
21.81819018622828
22.0068283766719
22.77581877883506
23.89790983989804
25.27911268933545
26.67044073734859
29.24953812745722
30.11116810596465
30.57777357114838
30.50430111420983
30.69806766803697
30.91300315900902
30.7684027286275
30.34013357276157
30.88603492757055
30.80264126134561
1.837960689903329
6.716417568889522
7.527349949852147
9.194370821506512
9.545692362912108
11.02113562561425
10.46438739350113
11.79227200736754
13.26765652414963
17.66285184536696
20.62061894913274
22.50341481728086
21.31992764257103
20.81031380437729
20.10282850814739
20.04097996351638
18.61404288306749
17.47540552321309
15.97095434005545
15.44370730288025
15.54688543972584
16.16415512704663
17.10298787916202
18.44947842858889
20.15751176722928
22.26044245433617
24.78819963287581
27.62935098330557
31.04951120451483
34.76956492811226
36.14756846771719
36.01657420431876
36.3475068869775
34.84046327170235
34.54090293955568
33.64833426503742
43.57848242977345
37.60215361551232
35.31253911585561
58.78508706805707
67.53542223416646
47.07989145393616
44.3214612240971
39.21051440071954
33.62546402890634
1.692862210125006
6.028115005998376
7.568210745763896
8.973129749185725
10.12642124872413
11.91122644328615
12.84965547961473
14.45139992505969
15.02451957191671
16.41563351663691
16.77339845803875
17.90009963158008
18.14920329354117
19.07416622294505
19.23001740401207
19.96631955291713
20.20692604505516
20.80063074399181
21.25591999881133
21.99169539002513
22.69638438009333
23.36779578885134
23.61494921812764
23.47982221504845
23.29323023916975
23.50700561539849
24.38612812468089
25.67906159591901
27.03677256831445
29.84601056346951
29.92353473103209
30.37001100119923
31.07997845526731
31.16343598060215
31.0873764300495
31.34550791314423
31.3827659751923
31.24559036064614
31.18944759844295
31.78796948150393
30.98572438591778
1.89346205627996
6.840656929812638
7.630341612904509
9.272271610956272
9.888920588334809
11.59471077497317
11.21192544085409
12.17102686282614
11.80199687630934
14.61073353514272
16.96494708578642
20.99248183623327
21.19369967007052
20.68499501757286
19.06242576627974
18.62407862795481
17.48379805435619
17.00695195572992
15.97049831753755
15.33524195196291
15.28959559683667
15.92239830303505
16.961844735044
18.35868646138844
20.09570138048525
22.19956907832105
24.72109202584095
27.56813617685776
31.05094060010095
35.23140824688802
36.02186405296047
36.21837382054412
37.50449822756836
37.25158546065984
37.62305496434846
36.95647739763081
36.05899913757282
35.95012509804712
42.15578499257585
41.75190419219935
35.74560859804924
52.08851364575742
66.4337634022711
46.31887375210962
43.08485573264572
41.31083150300427
34.14897907749808
1.708365921894887
5.918213790859176
7.218205371962945
9.121979571666479
10.15255288879875
11.89481426730632
12.83889284910335
14.48946027154262
15.08418141504072
16.48584007828082
16.82781823311728
18.01690128631429
18.18842675034557
19.16131053543369
19.34282526823584
20.0919524774958
20.35800424367593
20.97612307158333
21.46967303393397
22.25803299886577
22.97037839411139
23.9164865088234
24.60926881296267
24.97451874754375
24.97532653030373
24.85336730878207
25.15716519686043
26.19583962054175
27.48073892536578
30.06747287210866
30.91766296282961
31.04064121405122
31.18861382120227
31.51259966987459
31.53721362876314
31.50184115056526
31.79503343313172
31.74226158631217
31.79409251870617
31.97396490112465
31.26824897268593
32.21927911530627
31.92135075363475
1.905977562140524
6.936835423039589
7.774421542482627
9.302064180261077
10.16365657181235
11.77159246269525
11.79605922228658
12.97349210307522
12.00015255171627
13.04139858572321
14.58649592021822
17.99070257195191
19.97661114602398
20.68302866175618
18.725961155178
17.79203694843141
16.43435576814907
16.15147967530887
15.77476034181364
15.53262840320462
15.27871207421332
15.70085212747235
16.75419910678549
18.22888998215619
20.00487935385949
22.1315196550763
24.65941995140205
27.50305082926292
30.96571645989185
35.05182071461364
36.26789838488147
37.68858027084835
37.51265273937602
38.75989661205572
38.8371588472746
38.78341428219878
38.2726863273864
37.86931476203945
38.20191640514717
43.58240753552876
44.57958217266258
37.77247190067607
36.73559775398594
54.46455858621392
62.69863570468505
53.26043737353092
47.06213533230946
41.65350509791863
41.23973289134744
38.89535849978441
1.683277012566396
6.022021601487416
7.211413659713682
8.921952212775796
10.24586973116763
11.83753097575347
12.87869692174842
14.47674595953483
15.14336411341487
16.53926439538139
16.90232370656008
18.07197235851265
18.29551404644741
19.20622836668465
19.43029968169339
20.20077312162258
20.48523794831102
21.13413823302807
21.65100046443054
22.47911832327502
23.24044149687888
24.19756379815148
25.14084241212321
25.98683909188747
26.47246734450605
26.54652730811698
26.56464675426502
27.00486976750546
28.05703233200742
30.78787399262818
31.29059038281338
31.74637675870817
31.97089930624799
32.01542022379601
32.06429787410745
32.13701172031662
32.34635024161
32.20460201807392
32.27941147112037