/*--------------------------------*- C++ -*----------------------------------*\
| =========                 |                                                 |
| \\      /  F ield         | OpenFOAM: The Open Source CFD Toolbox           |
|  \\    /   O peration     | Version:  v1912                                 |
|   \\  /    A nd           | Website:  www.openfoam.com                      |
|    \\/     M anipulation  |                                                 |
\*---------------------------------------------------------------------------*/
FoamFile
{
    version     2.0;
    format      ascii;
    class       volScalarField;
    location    "6000";
    object      Ma;
}
// * * * * * * * * * * * * * * * * * * * * * * * * * * * * * * * * * * * * * //

dimensions      [0 0 0 0 0 0 0];


internalField   nonuniform List<scalar> 
18230
(
0.2459420669786643
0.3204749250776296
0.07814392069930054
0.2208912314931269
2.245489440910907
0.4219569617775389
0.121749960379869
0.0637973371347117
0.2097126296660958
1.736506302409992
2.309581273858109
0.4543456589479747
1.39446834345316
0.08354403626421962
0.04685471121294529
0.1953601874907198
1.547108984895264
1.772185341294854
2.302429700723985
0.5028868044827011
1.883489530036156
1.295011169901612
0.05325392941380457
0.033026015080516
0.1857018387635773
1.536171632996267
1.594412453545796
1.755892090425312
2.297127230179088
0.5396080033962405
1.267428851499629
1.87119070521486
1.244227325945321
0.02976323175331635
0.02840961804241525
0.1740923727595543
1.524266719672007
1.589214019955465
1.589101348016167
1.761496661302683
2.287602914906142
0.5716594895072906
1.004674826953339
1.251351106149597
1.867053351890789
1.20854688856294
0.03044869023482371
0.02021306252265503
0.164284879179622
1.503826237889314
1.575128243632882
1.567229323905388
1.605455668010038
1.75328140265973
2.274910232320415
0.6003210344132318
0.9982009364680889
1.033684480937754
1.2449436172468
1.873821207230186
1.20224409751721
0.02928670921107099
0.01790723066628716
0.1519552668877797
1.481032483953197
1.555355357406761
1.553684400147555
1.587970890928906
1.599266798308839
1.753037354937463
2.25963025159624
0.6311616855194122
0.9741084965536619
1.008127375498138
1.035442532732904
1.24828181533735
1.86616578998121
1.205200635874939
0.03210078479422512
0.01955178242122208
0.1370215860757777
1.458060376572081
1.533318542812292
1.534386061416672
1.574776893651315
1.580446339617492
1.607222521730807
1.743363567923739
2.242910164694293
0.6708096620447235
0.9687186200075653
0.9893466067597623
1.005071981744128
1.043791300530267
1.244247992330385
1.860443238444027
1.208671914109265
0.04486376135351334
0.02256085395735909
0.113123716230288
1.431029475242393
1.510312473090644
1.513539770629015
1.554300278901796
1.565839573387101
1.590228422023366
1.603616550476384
1.739368531787288
2.223411932334592
0.7178542359415599
0.9693086014033038
0.9881742369465975
0.9875547263399027
1.016550938691014
1.043370984608087
1.247648098170051
1.846142910690534
1.219342706525214
0.06389229663433202
0.02876946549370827
0.06717082587667607
1.403919982049662
1.482444886854559
1.492528000948603
1.533011441679377
1.546478143203722
1.575976332935689
1.585966662872555
1.608171492185012
1.730401121233287
2.201790246322041
0.7644821774138885
0.9735661029877319
0.9892629328955113
0.9845486005146731
0.9983794367407118
1.013330193211355
1.053850213084896
1.242144729301544
1.831644331871219
1.247660719496116
0.08381732265714334
0.03774683829055418
0.03124910622918138
1.369409235313482
1.453873359545757
1.466527698486326
1.510437345499206
1.525871952852019
1.556327300162393
1.571395216684438
1.591718728962541
1.605929184516587
1.725313925463805
2.17887763225135
0.8177404578046378
0.9798095775478014
0.9940602707352914
0.9847337947525093
0.9969081985040915
0.9965744008158061
1.026986893880239
1.051356200197958
1.246971751684313
1.817426686936091
1.27829961278076
0.108807894021041
0.04620065151599934
0.02669297468195622
1.28526814688167
1.410545980919745
1.440281505517527
1.48309278947117
1.502635470541397
1.535241464552343
1.55162370396203
1.577475437208755
1.589246428083708
1.609439269009252
1.716144426500545
2.153246673709708
0.8743880420464044
0.9832805432919964
1.000071039926518
0.9895094281425374
0.998413023884362
0.9935247141879168
1.009231547194757
1.022420055878108
1.065108995903872
1.240853442356219
1.800703558124664
1.322630544171453
0.1356689799674244
0.05223190519636211
0.063200256162741
1.156127135913567
1.301492501162868
1.398043607252279
1.455023364495122
1.475798540755049
1.51193254052574
1.530884967093862
1.557856737368146
1.574706506962131
1.593805843631644
1.60794839437168
1.707584879458084
2.125380733332958
0.9331734757219527
0.9895233412585228
1.003582830492965
0.9955121330959706
1.003399341354507
0.9939224583293942
1.007920707191714
1.006339625226469
1.039347315450936
1.06257894439501
1.244879786151902
1.780508899804774
1.377855664656091
0.1674067338428235
0.05271894984436898
0.1054669639885722
0.9871984439649111
1.168667552652033
1.294036842716162
1.412168519905103
1.447897065683933
1.485042064213593
1.507027992881812
1.537035833608733
1.554938974087282
1.579419519999829
1.592147389033487
1.61057506239028
1.696845828161062
2.096292896435233
1.00169325943561
0.998064818772314
1.011066338186257
0.9971492226085775
1.009168504164071
0.9987515916192267
1.009444484579808
1.003642755441671
1.022013526862219
1.034338825299658
1.0781388737241
1.238896529694569
1.7609973305297
1.450888173303353
0.2204483626383998
0.04113571322563459
0.1410793797842904
0.8847200475416839
0.9895398435905614
1.162507662173377
1.302923302394059
1.405053678179509
1.457024420744793
1.480140930182119
1.513682918513021
1.534081566114888
1.559836015732504
1.577701119018099
1.59579750561196
1.609488110324157
1.686800652476296
2.064967073608091
1.077445507474798
1.011141390584937
1.020601094119488
1.004360332838123
1.013099447777024
1.004090991390298
1.014556397559802
1.003933220330284
1.02099032656539
1.018973042186563
1.05362053386558
1.076532495840682
1.241509363342162
1.741399643086119
1.541962242318998
0.2914397720873423
0.02500937321410839
0.1734725179503271
0.8405866104290327
0.901671876343128
0.9827171073448264
1.170999652409113
1.296072618541637
1.414356594422385
1.452032337038183
1.487098795144551
1.510566660385739
1.539162716028574
1.557848893228734
1.581356372249769
1.594522544216571
1.610921076628316
1.676339474249271
2.034105154968214
1.153608611203055
1.034705082623757
1.037537439556016
1.013078977117854
1.019685260111826
1.005731661087078
1.020378505317088
1.009283760054045
1.022444718125513
1.016353296735333
1.03723044372719
1.049979172989092
1.092258114879653
1.236732000952142
1.72535511707919
1.63076744578494
0.3733597142313576
0.03370510512008622
0.2053135437221321
0.8133814765510103
0.863333029548275
0.8883000886277225
0.9930523427440213
1.16457227462052
1.305539945173626
1.408075398435207
1.459216107716088
1.48371145280498
1.515942677954949
1.537059012014757
1.561692891765484
1.579983317673746
1.597091921930255
1.610018194879032
1.666890605349989
2.003467617692488
1.231865814872927
1.017503011963892
1.058067675888091
1.029210658596285
1.029597661616138
1.013223182968722
1.024287406025546
1.014233449457942
1.027479047254294
1.017007698089125
1.036027399567369
1.035476391285524
1.06840911052576
1.094205134650616
1.235648659222497
1.707551024333378
1.710167578108809
0.4728598805144738
0.04890985956683786
0.2437511155654088
0.7894118539718333
0.8348122776482401
0.8470221049710805
0.9058513149174959
0.9838485029415222
1.174767465262939
1.299706454734152
1.416534975901302
1.455563998383838
1.489673781030805
1.513712947852286
1.541109353455309
1.560128813568803
1.582268760983102
1.596134612269736
1.610275274068114
1.65764527089712
1.970905131143654
1.306654402472627
0.9860314708500828
1.040524768404411
1.052164877186746
1.047010634615002
1.022999704541314
1.031093536485458
1.016887128351027
1.03316221141561
1.022383844120373
1.03729569188693
1.033107994036463
1.052313461609373
1.069205372517933
1.105430932158542
1.233598198656504
1.681672156612051
1.776730994701855
0.5776846715119596
0.06585125274918521
0.292672411320197
0.7679535245874647
0.8070830769220909
0.8214756465679206
0.8670870871390799
0.8919877369885751
0.9983335743768332
1.166332645546899
1.308782505559482
1.41157531728698
1.461917717132421
1.487175705444743
1.518067555371237
1.539374378544627
1.56265776030887
1.58095882090999
1.597353522869935
1.6095631878792
1.649548837131032
1.934751793266253
1.378299170851389
0.9638529538393754
1.002132894226726
1.035200266056461
1.066865092437455
1.040348086806287
1.041017035730094
1.025225106364046
1.036964638031606
1.027324043407051
1.042375826830996
1.03425549985952
1.052046530091543
1.05560656029319
1.081438652329429
1.111217751903554
1.232703050692977
1.643608036869531
1.810910679886435
0.6821913707027794
0.08893546892019136
0.347454584772859
0.746858356815933
0.7822478718628957
0.7974817939225036
0.8387770958438246
0.8519557536660969
0.9113697032687171
0.9867885725331087
1.178991714615681
1.302845537655784
1.419144679401551
1.459067526288434
1.492107503838209
1.516230260089162
1.54209444724313
1.561276620489775
1.581751788268195
1.596423244486324
1.6089475214815
1.641587304459629
1.897851265853018
1.430851315504482
0.9868083418708805
0.9826795595223083
0.9996749671847713
1.049109222346776
1.062019319066712
1.05779394418835
1.034394525582763
1.044076301376365
1.03041635489519
1.04766598705405
1.039596984965008
1.052937733356083
1.053710651433243
1.066966229671999
1.088209073791341
1.11873407411823
1.228189613115096
1.59957961022949
1.821755140612681
0.7798775050385254
0.1240697093926091
0.4053076366129311
0.7222623899852244
0.7607741981372336
0.7741878258585227
0.8112129605019806
0.8267937879986867
0.8722519468287594
0.8980211561223821
1.003901327836391
1.170569629783998
1.312224853248042
1.414966257807917
1.46446943376478
1.490228914751901
1.519202756047015
1.540611068300278
1.562306440640825
1.580239556437375
1.596292215461699
1.607072379068163
1.634417412302236
1.862100835627054
1.466201913214428
1.023774532644794
1.016901698385001
0.977589449204358
1.010947798114565
1.045993105725167
1.077117844326136
1.052017698815184
1.05382645769989
1.038498611576516
1.051341657422869
1.045165110657694
1.05751813166004
1.056321238812892
1.066337263069044
1.074732502451543
1.097677257958022
1.122010992683287
1.225712834856007
1.554790371689793
1.819023643509536
0.861514606709578
0.1672920755222642
0.4641447860258702
0.7029992985794098
0.7390383103767252
0.7517550780078688
0.7864263472430485
0.8016858697666385
0.8436576994859248
0.8588807732242901
0.9166288099831438
0.9929820973480835
1.182961963231587
1.307403236529602
1.421391885304362
1.46224186610321
1.493700279028152
1.517651822740377
1.541788823840865
1.560849790344256
1.579454254756343
1.59502283761268
1.605287348745289
1.627513092604598
1.828525759829759
1.484026303550269
1.048661090968949
1.062532767225603
1.004569684026523
0.9922568076299801
1.009422664535375
1.059016866861953
1.074346529385755
1.069791258835084
1.048546281438315
1.058085590367464
1.048279541679368
1.062856685261928
1.061023286398871
1.067566492265398
1.074270225301162
1.084889221970259
1.101524236267714
1.128960405891947
1.220141303622605
1.512209626345083
1.807206527133548
0.9276665380346687
0.2158155334341003
0.5231014390023218
0.6820501274848696
0.720127271646525
0.7289049658344358
0.7646682952963741
0.7774483279745218
0.8164573194579309
0.8320710463182609
0.8772499602649378
0.9048242352196347
1.00895826454864
1.175780509281526
1.31500823972914
1.417841196354067
1.466119021628112
1.492223401513596
1.519140763261078
1.540264178082047
1.560356666208357
1.57710297718417
1.59311200597322
1.602568614934239
1.621206440220433
1.797067040821624
1.485074980075718
1.017499531555047
1.083163715817623
1.049709815138573
1.027613153992449
0.9889369925727256
1.022110979760847
1.057479845891547
1.088849051287084
1.066693334896315
1.067310618757145
1.05648788545977
1.066172909755163
1.06666810995926
1.072525805164873
1.076012570514314
1.084755036003667
1.089607245538544
1.11054304676766
1.130484834078994
1.21380852112185
1.471155094745835
1.788118915214454
0.9762686140340475
0.2664720448706844
0.5797601858969494
0.6640976634475121
0.7023485573479107
0.7083556189794582
0.7430229995625396
0.7550066314784332
0.7920332577562773
0.8068173849556528
0.848878711055345
0.8657203594838677
0.9216699170244105
0.9994266569210351
1.185970354470041
1.311032321724871
1.422499450572021
1.464331964002181
1.494185275641467
1.517687602379151
1.539954360427042
1.558147893176529
1.574392943559627
1.589643293962353
1.59935026968946
1.61488468709106
1.767941386961789
1.469089591320886
0.9507764436403103
1.042429173211495
1.073477613195319
1.072406580888083
1.018962553730338
1.004486897105227
1.022354729477311
1.070794997610363
1.088638999577349
1.083137344967226
1.066103584022019
1.072834128830681
1.070168781466967
1.077494423020389
1.081036306199515
1.086432914662081
1.089697482834612
1.099582900738078
1.112874396253629
1.132071340139199
1.205920500583614
1.435535226516919
1.764096818343363
1.009400687148783
0.3190848032481198
0.6319144307337672
0.6487375573570429
0.6860434818526713
0.6890131314688933
0.7248076064677879
0.732683726545592
0.7704415967224353
0.7829466335686338
0.8219558257225059
0.8390600429869044
0.8821760980299247
0.9123415620896965
1.013081440935484
1.180022512182349
1.316630136640713
1.41945576304636
1.466609774190485
1.492854857983217
1.517748908654245
1.537781755071727
1.555666164575985
1.570203686508924
1.585304562629717
1.594875257000352
1.608928652956042
1.742388322901242
1.440171637438891
0.9105038071994233
0.9748910412482752
1.037512719580967
1.092343817061042
1.065828057344588
1.040901251851276
1.002847013670491
1.035376692671977
1.072297840757562
1.10207457950332
1.084251136766383
1.081918845326195
1.077484685536471
1.08044701976616
1.086022668921002
1.091483225365179
1.091273679060509
1.100087985455016
1.102871408035714
1.116075044521444
1.131742287423404
1.198404579603692
1.40383899287097
1.736270178329103
1.030746856411304
0.3712149333403995
0.6785984648119588
0.6337150994184163
0.6697540209138454
0.6726179878138071
0.7067386438145925
0.7134705293160987
0.7488617916243637
0.7609475197494663
0.7977958898996486
0.8134059365329637
0.8540839592414881
0.8732654472368919
0.9262152963583662
1.005846729002418
1.187623562879157
1.313401071259895
1.422361732164884
1.464981812562392
1.493491242061311
1.515813014924176
1.535543906732375
1.551640009232114
1.56541333124006
1.579213645688932
1.589607418911304
1.602737712258058
1.719174360775396
1.402995090831278
1.076599575940677
0.9458935465503219
0.9604646204890468
1.050066398915124
1.08853247602124
1.083818626258589
1.035689858061573
1.018361327404442
1.037789452430556
1.084390838462469
1.105373193938384
1.097823793948278
1.087311575271921
1.087253180274557
1.089253387303386
1.096370342428761
1.096389756507268
1.101466206535558
1.103795561575473
1.107153860029521
1.116939177926846
1.131443182617541
1.190865081217551
1.376130466059239
1.706097741725878
1.040582843363953
0.4236545847418205
0.7241215587455009
0.6193020357540248
0.6538538902656851
0.6573481153077588
0.6904973952764665
0.6940685872204319
0.7311633521764048
0.7387464197764331
0.7764540969274212
0.7892206502981762
0.8277663989877838
0.8463486180887085
0.8870346647281406
0.9194219276417442
1.016367478952481
1.182968397682267
1.316897657695376
1.419315877902756
1.465872998537098
1.491836899246846
1.514044668423667
1.531731459823058
1.547122783730605
1.559073932303076
1.572356687272102
1.583179700483806
1.59606590480514
1.69900573504599
1.361744680528664
1.313425048461961
1.151011886313606
0.9175423320789068
0.9826613230870451
1.051708064420718
1.102909913990935
1.083305325803933
1.05400870002659
1.019974282307447
1.049891868890325
1.08956620878188
1.116218888624342
1.104713989864681
1.096358908008976
1.095984997977477
1.099578260359061
1.101058964535865
1.106705768035592
1.105040243972152
1.108434336022776
1.109235254950608
1.118047360229787
1.130361641165295
1.184158431089834
1.351571175979325
1.674197701478397
1.037595065695011
0.4713689774079882
0.7699270428916934
0.6056447325095364
0.6394865327946029
0.6420381799262528
0.6742704270219592
0.6779029037445191
0.7128893792647091
0.7198203611295115
0.7551270397735939
0.767790475011554
0.8037629070187277
0.8204320274884943
0.8592659021441162
0.8806722210627425
0.9302155349463904
1.011244542910728
1.187976117124069
1.314300696431314
1.420464119988135
1.463905701306434
1.490626818896918
1.510653861055558
1.527613918323489
1.541022404309306
1.55238268458451
1.56333690870708
1.575577459730049
1.588249482350476
1.680398972589222
1.323570099364761
1.423954207600329
1.386997371413706
1.089826684909188
0.9529386590578279
0.9764627913896233
1.060359367638152
1.105802433305438
1.094481769460549
1.056148942959075
1.032472049575343
1.056713015360708
1.09833645616059
1.124854227803207
1.112634527896763
1.105069725468624
1.106362826448686
1.104244221896638
1.111116954083357
1.110459817696018
1.109806173776445
1.110958545963489
1.111801269430379
1.11831978415147
1.129357616889226
1.178013210664069
1.330368588887158
1.636087645624645
1.040238767628261
0.5139789104372491
0.8347865393397238
0.592903721707397
0.6255186341667632
0.6271911492807098
0.6583858472037575
0.6626962364895983
0.6959919449547092
0.7010629002578714
0.7374618876977307
0.7459325399982842
0.7824874742961244
0.7965662379967597
0.8332461985223654
0.8533932229432225
0.8913295186597689
0.9257364427430858
1.01862472450113
1.184117214210242
1.315665882469979
1.416955617752861
1.462733763021493
1.487590969208873
1.507129805144521
1.521952545889897
1.534648698805374
1.544095601143396
1.553774175613239
1.566374346812326
1.579158332507274
1.662894295724898
1.35284040974862
1.395781156076245
1.477502331003626
1.352771297107754
1.159121938196886
0.9369072202915891
0.9966567194327519
1.068932707402434
1.113444359217291
1.101666661843313
1.065467327312763
1.039979847669508
1.063434400324492
1.108244041666741
1.131463518560638
1.12110013004276
1.115515321825742
1.110910301366907
1.1142373964587
1.114656641576055
1.115263786577372
1.11224734849712
1.113541158758339
1.113357700745024
1.118821612774255
1.128188187478699
1.172774147334259
1.312291572363812
1.586285212549027
1.064175246356353
0.5395407480605343
0.7246520035021781
1.122044448499499
0.5808075371754648
0.6123167971513992
0.6132915487564794
0.644175536813281
0.6469773145830128
0.67976588644164
0.6846505596136967
0.7186254010784927
0.7271966761322454
0.7610889704496859
0.7749763654904603
0.8093200917534381
0.8276327317584408
0.8638468153269087
0.8870291296838081
0.9334330000760395
1.015017957084151
1.186750964120254
1.313038557044957
1.415919779729451
1.45947397610825
1.484509641014667
1.502043655128297
1.516147334788904
1.526527483742367
1.534967441861145
1.543066727796821
1.556236382171703
1.570069088234303
1.653214089355898
1.534905956471637
1.338303896840819
1.438882197992485
1.45324581126463
1.395754473882623
1.122239925022304
0.967480539652211
0.9963611312334373
1.071812328509456
1.12234193357702
1.10509802103553
1.075646071497945
1.045490218684203
1.074038169179489
1.114650280459025
1.13906164400156
1.13172039686351
1.119869092752206
1.120791955426324
1.117775172409151
1.11923393797497
1.117808192153426
1.115314208184111
1.115085944791091
1.115318634076367
1.119248592945507
1.127275098814029
1.168362865744465
1.298161570443806
1.528908045589316
1.105353641609452
0.7184536102269019
0.7141978328405791
1.089493818573137
0.5688476463480796
0.5995537606438288
0.6005846798461674
0.6301431812751996
0.6321342903772557
0.663897411509982
0.6688076223918488
0.7017762926205897
0.7085099028743905
0.743169982403011
0.7532624749625156
0.7880930811681803
0.8036057471544704
0.8379846381852104
0.8597990571330353
0.8948731887484397
0.9306241561758904
1.019890901258941
1.182836183178544
1.31231181021625
1.411610505450372
1.456321721425528
1.479736047627265
1.496799001476087
1.508598600639069
1.517762630319683
1.524533772072572
1.532232203457388
1.545420397370397
1.554665953585993
1.613802982966417
1.556064550952859
1.2916531697617
1.370355383494163
1.412861838531584
1.482658151183262
1.375924953978076
1.171603711158782
0.9605406527648925
1.011492506832639
1.08218322189832
1.125416960122728
1.116284841285278
1.078557683357986
1.05655668410267
1.081102834224733
1.121509936671058
1.149553340909884
1.135775253693824
1.129541838638354
1.124344037447381
1.122361981534184
1.121569366286996
1.120702415233094
1.117692811439057
1.116982789965273
1.117063613115049
1.119967917055243
1.126554862914381
1.164907798052025
1.286071281552566
1.52752878721753
1.130351207783027
1.219927761345641
0.6585778773523289
0.6500447341471297
0.9343318116916282
1.283164224477208
1.073887122430389
0.5574852149791523
0.5873288841482256
0.5880550164212266
0.6167088141427887
0.6187793921782624
0.6496973650038619
0.6529842704591898
0.6856726361371482
0.69196913297734
0.7240526359966404
0.7345969102878234
0.7665583629320177
0.7820995614455957
0.8141537685819317
0.8339846013555553
0.8675317288274398
0.8922279980975516
0.935726740064553
1.01693140425892
1.183549487307596
1.308599595597887
1.408246848026846
1.451370733043714
1.474689017938169
1.489665268127631
1.500273542686543
1.50746161842977
1.513861592294126
1.520390702643951
1.527578868007216
1.539223479944666
1.583787069686332
1.577595868064981
1.262532695266403
1.322504036488393
1.348802110376384
1.44236759604697
1.465978650364884
1.404187147490404
1.149050440682987
0.9825106130917981
1.012265383770081
1.088320780276257
1.135224685017042
1.122808984337673
1.088556594856299
1.064436189618795
1.086533000432785
1.132400164547072
1.152785808188482
1.145108984892793
1.133040325993676
1.128900930122951
1.124746261585185
1.12429478909493
1.122643924881233
1.120344618963193
1.118697088954284
1.118700218840477
1.120808601955985
1.127004445994884
1.162684813891303
1.288954134300179
1.525463224249634
1.344720364852345
1.118363886364997
1.170181187161895
0.8274551880291638
0.6377942144016165
0.9463203145436562
1.255270716519201
1.095796818144921
0.5482096526066661
0.5743923410667263
0.5762235048492275
0.6034870447504775
0.6055096914070141
0.6354776803252055
0.63868970029531
0.669606658052084
0.6759761470063397
0.7073758473400842
0.7159287329254838
0.7484620803482144
0.7603780094302166
0.7929042530728506
0.8100209355328967
0.841741610778952
0.8649711626214128
0.8974683783477382
0.9335444797627372
1.020228253321012
1.179494755812665
1.305855008611281
1.402471125862499
1.445851912635563
1.467602357782632
1.481540015024689
1.49015214402507
1.496881012238866
1.501873705273593
1.504161583387313
1.529852996872902
1.506295125080463
1.53601226009795
1.585846763203079
1.579300487260967
1.237226411570711
1.292815805609774
1.301809141886644
1.376149906931856
1.419754214980981
1.490127534279516
1.390371868738444
1.181835495586353
0.9785898841822943
1.026706999188164
1.093648455148367
1.14314547696524
1.128525260297971
1.09883326175342
1.068959209231903
1.098378846595201
1.135463448021012
1.161094482699357
1.148496519238682
1.13752315030585
1.131321837046921
1.127537387268163
1.126134525990902
1.124817874136655
1.122753200961404
1.121123681356714
1.120420584951017
1.122387447203979
1.127722525592483
1.160790642778748
1.238970970588443
1.463605323679939
1.324611036479517
1.087662809722048
1.135099915632015
1.287166311623213
0.7686917208353028
0.8128795960343703
0.6553286993241293
1.069923634865288
1.441370294254336
1.12986630091282
0.5371870938982253
0.5619538445366995
0.5652324248396141
0.5909049344483431
0.5927284053134373
0.6221298307735218
0.6245911319458214
0.6552443013678065
0.6599694747595883
0.6912496711303417
0.6992598107097117
0.7292080946616291
0.7420063520985383
0.7712607403110521
0.7887140270888631
0.8178841758024717
0.8392286107696021
0.8701443050326614
0.8954422805272245
0.9374230796005798
1.017685893045643
1.178055196096764
1.300592683120874
1.394897007039507
1.43803925524788
1.459431063223345
1.471364166855493
1.479677643430582
1.484392956390434
1.485161752082998
1.487514329249157
1.513664618245036
1.49332026073109
1.525308493523797
1.570457914113893
1.578058466176979
1.211180540714496
1.263714620561779
1.273756944337772
1.32849443467841
1.35669947916279
1.450169585272613
1.477826491376723
1.412689150332568
1.167430360020662
0.9966786272253529
1.025549145322592
1.106438605749816
1.146799621509407
1.14019661636089
1.10039322320527
1.081715118183227
1.100929218459137
1.143579246051063
1.164014132784354
1.152863805395432
1.13992425150744
1.134180221832127
1.129441743168655
1.128203749177588
1.126760216754725
1.125304296589809
1.123883978627955
1.12332205207249
1.123972903006757
1.131716300533506
1.17381021980088
1.145743032865334
1.255009391396598
1.324968527089553
1.467887091282374
1.074186913231121
1.072036996655275
1.305722958467739
0.8466146405259134
0.8821886846899784
0.6793013571399048
1.090416662720489
1.263299561248223
1.125182555275651
0.523212825368582
0.5508951908026781
0.5550706097254845
0.5781014989887204
0.5811833492955472
0.608774986303782
0.6117920588581914
0.6409469172886121
0.6455737880041291
0.675080352505362
0.6834303708440476
0.7125958959036244
0.7230334346690032
0.7530009404223879
0.7670508547189622
0.7965582661213531
0.8153559247185855
0.8443808064127392
0.8681659592260591
0.899472897708174
0.9357753017599928
1.019492293987552
1.173422060492639
1.296111584046526
1.384930896049389
1.429230254441778
1.448819443230546
1.460578799406774
1.465937264008198
1.466695419022188
1.468583135660501
1.480021980665722
1.516371960997559
1.496168515629221
1.480914488065517
1.524304483490733
1.575945033270316
1.528557251037177
1.579186752620763
1.183452860181708
1.234561032044976
1.249898085688437
1.298904063482316
1.309394213499785
1.384449752474658
1.431385976928019
1.497484071500481
1.404640088893513
1.191284244160392
0.9938209702430425
1.042364166454803
1.105065259734283
1.159387610524033
1.141828768796725
1.113939370226327
1.084396935747848
1.109052063336209
1.145998677936483
1.167777931115095
1.155201635700146
1.142792537858047
1.136174541942003
1.131613329752609
1.130068005645448
1.129045009307003
1.127836913266005
1.12750713968661
1.125624772789555
1.129857779788488
1.131772855479055
1.15915551615055
1.145471856861075
1.242918533401973
1.282168167535221
1.430929433367313
1.083794410312597
1.171614121446193
1.387297579029164
1.044323403179362
0.7467539249388414
0.7847638253984719
1.051112788635097
1.106975379680907
1.385859010317596
0.5129622419557136
0.5399172182521262
0.5427748788800433
0.5660012948797563
0.5697502327644171
0.596000153918804
0.5990146482896155
0.6273756274103258
0.6315289892150123
0.6606846284844624
0.667211304201081
0.6963980836579773
0.7065700607776203
0.7337020532598776
0.7487177550776811
0.7748418284819441
0.7940511080243476
0.8205173006969932
0.8424928877796711
0.8721316546308888
0.8980357918559797
0.9384700965055086
1.017137385322769
1.169784971441608
1.289399121792459
1.37566501951128
1.41739671713063
1.437075168687725
1.445827778839324
1.44656906444116
1.466059515919271
1.448509137337964
1.462263685202637
1.464286688999209
1.506862722187958
1.488912786089382
1.473360140686381
1.512289313595518
1.557778790733237
1.51680345077068
1.580859030738968
1.15663163339961
1.205408250440176
1.22183810101796
1.269643804428938
1.281542349580805
1.337071447180211
1.366738198492699
1.458184789594399
1.490798236800706
1.422620454966057
1.183846726099573
1.011669071320583
1.040442156593089
1.119642699479867
1.160108928847599
1.153910741252366
1.116679014154721
1.092746930831663
1.111259218095501
1.149228315861777
1.169472492568495
1.15801692657937
1.144796364520534
1.13844204100099
1.133624931425511
1.132285556328161
1.131331145110182
1.131339671909247
1.130499589232284
1.133029295450666
1.130998114054603
1.133052461314794
1.13223595776744
1.157053273327498
1.137904337677626
1.1943257654378
1.276876503982281
1.303684017255617
1.096424664281868
1.113412809055898
1.388324576272877
1.066638279182253
0.7554555492332238
0.8096997369080494
1.087289007152795
1.130850793510624
1.422995973883534
0.5022930314955349
0.529027097534812
0.530985787234639
0.5546575884652327
0.5588741232824687
0.5831965085103973
0.5870986011306903
0.6139723416434124
0.618521114429858
0.6462908939198723
0.6528045672151236
0.6801944489800806
0.6904369176446008
0.7171158626637092
0.7296490815380869
0.7565222115670509
0.772398063433147
0.7991747854516522
0.8186852185009166
0.8464212255871691
0.8707518214008458
0.9009522007410647
0.9372919317851068
1.017614694495006
1.163475296622828
1.282125210494512
1.364106922070626
1.403954580256314
1.419513063821168
1.429106424345828
1.430571344305259
1.454273553619931
1.443739387546639
1.454631335814988
1.464278682800994
1.49285950204811
1.476170808791127
1.472018436404026
1.505414822628802
1.521771557287724
1.570593730491696
1.505691014697661
1.553410308699513
1.126439885516875
1.178830024365891
1.193913011239938
1.240315399595055
1.257369197964525
1.307041369970056
1.320227806689554
1.392635285437861
1.443384190530306
1.505884234731528
1.418991950187807
1.20102982814759
1.009541517550078
1.055511096217063
1.119677823961292
1.171505225668745
1.156554447119066
1.123724004348423
1.095150045972857
1.114577529416365
1.150602166005248
1.171601108649476
1.159914088287468
1.147094040982247
1.140568467826178
1.136039174163085
1.13456456468854
1.134569513855066
1.134191374062509
1.137778066449322
1.137493659899887
1.13252197318873
1.133770787346539
1.132689524532406
1.143256139926982
1.136550340353299
1.186956314929309
1.223864313225767
1.258239999145901
1.100301940957434
1.153685123340858
1.328769786601169
1.391314744823831
1.061410093848612
0.8909876538169004
0.7678898531968003
1.010776947408056
1.118738590809171
1.124051183209389
1.222553280332685
0.4916108487532883
0.5187955648144345
0.5204844736691975
0.5440519487363777
0.5469151886894963
0.5711741806510719
0.5755060166694782
0.6009832862550666
0.6057825421176855
0.632508140463746
0.6388038944702467
0.665633226730768