/*--------------------------------*- C++ -*----------------------------------*\
| =========                 |                                                 |
| \\      /  F ield         | OpenFOAM: The Open Source CFD Toolbox           |
|  \\    /   O peration     | Version:  v1912                                 |
|   \\  /    A nd           | Website:  www.openfoam.com                      |
|    \\/     M anipulation  |                                                 |
\*---------------------------------------------------------------------------*/
FoamFile
{
    version     2.0;
    format      ascii;
    class       volScalarField;
    location    "6000";
    object      nut;
}
// * * * * * * * * * * * * * * * * * * * * * * * * * * * * * * * * * * * * * //

dimensions      [0 2 -1 0 0 0 0];


internalField   nonuniform List<scalar> 
18230
(
3.972085454867144e-08
2.885873824410521e-09
1.573898216815868e-07
2.93178549079732e-06
2.816547250950394e-10
1.703008383736532e-07
3.28466331965365e-09
3.1132848410649e-06
5.469417586004439e-06
7.441371965228446e-10
1.317531593922734e-07
4.725152536818868e-07
3.808491501379229e-10
1.958003049168874e-07
3.880674962217756e-06
6.635101552663947e-06
1.082604811676573e-09
6.997446700859752e-07
1.928840525534263e-07
6.959547661256981e-07
6.996561227767075e-10
8.414683383854071e-08
5.189217825359175e-07
5.649415154737925e-06
9.435508721968868e-06
9.61949250682723e-10
5.441248066697106e-07
7.447174052836916e-07
2.258387794018332e-07
9.61339409112027e-07
1.683980322628613e-09
7.039797610591538e-07
2.080789224902762e-07
8.109505650412148e-07
6.973746978608244e-06
1.067253816888143e-05
1.254279845533594e-09
6.629584828601668e-07
1.192734943968661e-06
1.012486600466569e-06
2.265651910223987e-07
1.153887275133226e-06
3.094505430102225e-09
9.730012870639677e-07
9.492816019731812e-07
3.365096976283299e-07
9.432773967389037e-07
6.613457952198264e-06
1.245366155232927e-05
1.231082395966294e-09
7.498800031863926e-07
1.142790472257115e-06
1.671933969465723e-06
7.660569270023827e-07
2.551108377074061e-07
1.353790467195043e-06
3.646026949300408e-09
1.146192956115992e-06
2.808210482252705e-06
1.37541690615233e-06
4.60829900343557e-07
1.173453434170406e-06
8.308378809140623e-06
1.233694739617818e-05
9.591453093969241e-10
7.456612534143402e-07
1.191854097454253e-06
1.257330302290685e-06
3.236520463974626e-06
8.330473785792641e-07
2.818785932768842e-07
1.588243516997849e-06
4.257509676569138e-09
1.962279530394903e-06
4.225311115587744e-06
3.630887392730959e-06
1.33778312655757e-06
5.76492498780336e-07
1.46807242234449e-06
1.050931482391474e-05
1.206422408100967e-05
9.312832335316706e-10
6.967525658390335e-07
1.148325657558368e-06
1.348101283832281e-06
3.293629666081177e-06
5.150511360185137e-06
8.596897472406896e-07
3.296043631115443e-07
1.853483865642212e-06
3.624689343808531e-09
2.22375896497503e-06
4.218205994883666e-06
6.561696807396301e-06
4.260446289029162e-06
1.614286144692585e-06
7.199799158771585e-07
1.823242611437555e-06
1.000158935467345e-05
9.98567433057925e-06
8.469698169618257e-10
6.544579413772399e-07
1.147368326126878e-06
1.326891387629016e-06
3.546959582675321e-06
3.941459180248429e-06
7.533722971691157e-06
1.044563515308814e-06
3.920697404850298e-07
2.127917939709671e-06
3.443723132316715e-09
2.136266990205181e-06
4.307007011203253e-06
6.741629136762744e-06
9.192748718611003e-06
5.090289988958729e-06
1.810550763073245e-06
9.25401564594054e-07
2.246861108902732e-06
8.029182188512266e-06
1.142020124810278e-05
7.23242458867358e-10
6.116596582937081e-07
1.192085108405306e-06
1.305224443411259e-06
3.676380367593506e-06
3.903667480974185e-06
7.383280904795118e-06
9.908542043356915e-06
1.18668548192928e-06
4.731460540016545e-07
2.433205836897915e-06
3.811964928169916e-09
2.040956839351615e-06
4.255092154196349e-06
6.753572857280822e-06
9.486342867962304e-06
1.213011342882542e-05
5.707015648995486e-06
2.404914215465644e-06
1.225777915463354e-06
2.702376108678147e-06
9.147632107868102e-06
1.58009601555077e-05
6.238489934571359e-10
5.374255154064752e-07
1.273924892029498e-06
1.527490829124113e-06
3.811596604240399e-06
4.149501239321488e-06
7.684690957609475e-06
9.551840319616177e-06
1.189444632823297e-05
1.435087032033757e-06
5.856883962437683e-07
2.795760730448486e-06
3.694195240874304e-09
2.126684444190505e-06
4.191247984810324e-06
6.707643669385841e-06
9.436948008625744e-06
1.245712953989717e-05
1.530528541995897e-05
6.907426910140018e-06
2.89102902210474e-06
1.637243021850069e-06
3.180357681663162e-06
1.209267971428533e-05
1.416121072086128e-05
6.654906613383135e-10
4.857278455535649e-07
1.432044886035497e-06
1.635945712059715e-06
4.039819762180288e-06
4.38512615406148e-06
7.803298760981306e-06
9.734130575520183e-06
1.18947650885387e-05
1.465293909377448e-05
1.614577306641767e-06
7.267500246332669e-07
3.228089466307072e-06
3.366858591632156e-09
2.109956969502675e-06
4.278573722545518e-06
6.627631459677572e-06
9.382784123063554e-06
1.214366961708058e-05
1.561677374557462e-05
1.863479251260387e-05
7.238902642468956e-06
3.329933229974304e-06
2.134540534179584e-06
3.77981420955738e-06
1.282420170794381e-05
1.22120133896369e-05
7.550729141293637e-10
8.092735601267383e-07
1.818656066986346e-06
1.834935468077203e-06
4.280157082002721e-06
4.820128520728684e-06
7.950994402298062e-06
9.818986343443358e-06
1.227723103516107e-05
1.475081915273761e-05
1.551099197378098e-05
1.952059242387092e-06
9.127306041581044e-07
3.741965529424587e-06
3.905900466794652e-09
2.025662695069428e-06
4.217115922510462e-06
6.684632696804372e-06
9.284629045992094e-06
1.153021463256283e-05
1.560905380221116e-05
1.737570883160329e-05
2.221601640836034e-05
8.394037326696341e-06
3.97411363080611e-06
2.78649788004091e-06
4.619419440696912e-06
1.20582299441796e-05
1.051384752639175e-05
1.096106303148178e-09
9.790962777476188e-07
2.349778520036707e-06
1.956766508294426e-06
4.561424921361047e-06
4.819496811872887e-06
8.127952518769085e-06
1.016277116686767e-05
1.240527480632069e-05
1.518177363114009e-05
1.819487930806834e-05
1.856216420473694e-05
2.332324084805421e-06
1.162714731465358e-06
4.361286781104944e-06
3.824962280789501e-09
2.219416832246625e-06
4.136926494079702e-06
6.582938062018794e-06
9.299461515825109e-06
1.137022480107356e-05
1.556495101036033e-05
1.657239675913028e-05
2.268185083266665e-05
2.588322401011284e-05
8.570234918314596e-06
4.613973479151058e-06
3.701702079821752e-06
5.788466749452556e-06
1.196511844484642e-05
9.798655947762881e-06
1.621375882019852e-09
1.206389918626883e-06
2.404171583591169e-06
3.755738164810045e-06
4.923993079680047e-06
5.077580611802278e-06
8.311468571990151e-06
9.709693777052121e-06
1.265690305013144e-05
1.534941972806278e-05
1.874993140683791e-05
2.268530683672007e-05
1.993767277314402e-05
2.840360538784774e-06
1.495602510676789e-06
5.140832401380412e-06
3.666053495540376e-09
2.242662874233963e-06
4.220422482777561e-06
6.460137267808239e-06
9.202722919010337e-06
1.087460109168889e-05
1.543917342158825e-05
1.589387170462116e-05
2.273072750027978e-05
2.138151207810465e-05
3.018730312147271e-05
9.781615602254765e-06
5.246813204826529e-06
5.059686006608339e-06
7.129541805034121e-06
1.164002429623125e-05
1.00446856411934e-05
1.619562442413861e-09
1.43583769519385e-06
2.636858910511503e-06
3.905929487104489e-06
5.307620258054483e-06
6.137758643410473e-06
8.486184677866151e-06
9.96426782043985e-06
1.286938073250208e-05
1.567114924589653e-05
1.896532775351705e-05
2.341489684520696e-05
2.849463530502559e-05
2.430567598837006e-05
3.468391529162313e-06
1.925633285824536e-06
6.048390502444532e-06
3.632527426067698e-09
1.975018768586644e-06
4.224914395180525e-06
6.535084503908489e-06
8.985689193693771e-06
1.125429932329103e-05
1.538554568196989e-05
1.516507288364102e-05
2.26121860206676e-05
2.074991863113907e-05
3.067736430896226e-05
3.110954845489972e-05
9.587887472112613e-06
5.728652034029104e-06
6.531673278930345e-06
8.623208815082388e-06
1.204862982038949e-05
1.092104400288643e-05
1.709145723646064e-09
1.354142590393414e-06
2.729679251410518e-06
4.188044580722018e-06
5.618063412642002e-06
6.334081973341009e-06
8.778857668803829e-06
1.017299693442018e-05
1.313338766203616e-05
1.596252922162861e-05
1.938315595988699e-05
2.37379108322609e-05
2.94399989838039e-05
3.625364339199904e-05
2.651848194911576e-05
4.263198457849117e-06
2.49902760574816e-06
7.29637813365296e-06
3.08051050247837e-09
2.02917789790559e-06
4.137912823116167e-06
5.865737582106344e-06
9.061994332689869e-06
9.893476326612459e-06
1.52983562397922e-05
1.513060593191561e-05
2.25211428650643e-05
1.994042260820292e-05
3.079063287790173e-05
2.67631322405213e-05
4.045342369987864e-05
1.044052207713601e-05
5.908623148209954e-06
7.713422000645085e-06
1.043352264204697e-05
1.338619379919564e-05
1.222921238905789e-05
1.834239100832886e-09
1.297337175993253e-06
2.601513874236133e-06
3.833329511834677e-06
5.925749016227208e-06
7.547878165936383e-06
9.319154346408125e-06
1.040372549246073e-05
1.338122878771148e-05
1.630632032884681e-05
1.97962863474183e-05
2.428953673304768e-05
2.988231070380283e-05
3.744439637771895e-05
4.637041036463807e-05
3.210866987030229e-05
5.295900095105044e-06
3.226079197396642e-06
9.118199379027258e-06
3.125287402733766e-09
1.894266892746415e-06
4.234971572552461e-06
5.391401590979694e-06
9.069338020728257e-06
9.427533128098039e-06
1.515030465547543e-05
1.494496103817637e-05
2.245260707764283e-05
1.915257619208367e-05
3.077999964811641e-05
2.606490086678766e-05
4.089336882987681e-05
4.114721506597652e-05
1.060026977885009e-05
5.939415226085273e-06
8.482730075414509e-06
1.266502179615216e-05
1.527007906037328e-05
1.375020884713559e-05
2.159056347900125e-09
1.356999979843233e-06
2.734598004025348e-06
3.301848129565117e-06
5.883101167304028e-06
7.588703065502519e-06
9.727959078153416e-06
1.175034800308517e-05
1.382197381258759e-05
1.666045834422748e-05
2.024646853765357e-05
2.482983446160111e-05
3.058166823048808e-05
3.805752105484075e-05
4.784427096193155e-05
5.951113252095887e-05
3.695918161127651e-05
6.605923044531152e-06
4.244994146002909e-06
1.17430899109736e-05
3.590984165499114e-09
2.065942244530268e-06
3.963270896001827e-06
6.081300786961117e-06
8.822118448949931e-06
9.8954919422133e-06
1.516087210878266e-05
1.439794016071803e-05
2.230698624654557e-05
1.915095875732341e-05
3.059265606099887e-05
2.475890281930076e-05
4.113022654561791e-05
3.804935153941887e-05
4.750788179705493e-05
1.041911631355422e-05
5.817881578377931e-06
9.183068282902981e-06
1.550755413139867e-05
1.721400160036685e-05
1.556633383714556e-05
2.646532154537126e-09
1.518706185021494e-06
2.873453108575317e-06
3.476793577601507e-06
5.975455571519777e-06
5.247620307368159e-06
1.016496182183304e-05
1.085134163287449e-05
1.467891837072898e-05
1.727802074577303e-05
2.076389223745699e-05
2.544022477730392e-05
3.132197560570707e-05
3.897758225935368e-05
4.874279499563915e-05
5.410019383742358e-05
6.873913352841363e-05
4.265442005802603e-05
8.396452742306336e-06
5.76706036662064e-06
1.554988497374711e-05
3.659616543668067e-09
2.221150840565097e-06
4.022540164182235e-06
5.521824556639383e-06
8.759661144264932e-06
9.334144772579015e-06
1.49751585705506e-05
1.463902553483827e-05
2.21150270037977e-05
1.840697265068958e-05
3.054229626877933e-05
2.331114350941985e-05
4.107138742797553e-05
3.78363809588251e-05
5.084720787445893e-05
4.826164150025778e-05
1.016684723130666e-05
5.655289511712052e-06
9.778867298553336e-06
1.909264542529041e-05
1.943904021051408e-05
1.779076919863381e-05
2.199495010612319e-09
2.037017441499326e-06
3.072908946421475e-06
4.296330537709715e-06
6.399765735874962e-06
5.001684899882164e-06
1.056269025514009e-05
9.121653889083396e-06
1.576462947358228e-05
1.666681756745473e-05
2.168021990769418e-05
2.618979898596477e-05
3.212534022593257e-05
3.997995475615386e-05
4.996972706548644e-05
5.532686703811973e-05
5.679639142601475e-05
6.946765857377785e-05
5.016218041817154e-05
1.080693554479003e-05
7.952140481486393e-06
2.14711537621347e-05
3.257718017245961e-09
1.907544890562713e-06
3.888416434619264e-06
6.113942855422017e-06
8.535848636025841e-06
8.937613116135945e-06
1.458607239065423e-05
1.360988476311891e-05
2.205279351589506e-05
1.810728584769613e-05
3.039194009163634e-05
2.380681056981794e-05
4.100161736339011e-05
3.443180918018601e-05
4.604087677272267e-05
6.194274225992137e-05
4.625935944222791e-05
1.011981943638943e-05
5.559527672873975e-06
1.04335933614733e-05
2.318911306111177e-05
2.207404425957303e-05
2.050383033742633e-05
2.574378941592665e-09
1.596608327927401e-06
3.359735630073671e-06
4.824758169659168e-06
6.584933955062576e-06
6.268851998000436e-06
1.088432774699757e-05
9.06501467012681e-06
1.686747238994761e-05
1.627545848412886e-05
2.348983258077611e-05
2.742036736869306e-05
3.311667857365024e-05
4.10884286624478e-05
5.128809899647026e-05
5.883721904971461e-05
5.938541012679171e-05
5.790930323816762e-05
7.023294736712248e-05
6.020707349439472e-05
1.407504248982762e-05
1.116630461970252e-05
1.790738889567004e-05
2.921763217677969e-09
1.501083842640947e-06
3.638222288795974e-06
5.234165610361455e-06
8.236732893825488e-06
9.619390205933239e-06
1.432268854129524e-05
1.322125407347212e-05
2.179565859936077e-05
1.804266367815731e-05
3.020502377124271e-05
2.353064585505641e-05
4.095120693686894e-05
3.561987009416683e-05
4.370911199821297e-05
5.637213066353475e-05
7.124060744655981e-05
4.542501419426889e-05
9.864277877643321e-06
5.54943854192657e-06
1.103810289662379e-05
2.813298641315222e-05
2.477447128348243e-05
2.390615426666553e-05
2.153401804756526e-09
1.902325344274502e-06
3.035374892682708e-06
4.860331385386392e-06
6.676765572039776e-06
6.659253415100533e-06
1.137361647248851e-05
9.106200452752423e-06
1.754811511235673e-05
1.502218096424646e-05
2.559508930246371e-05
2.985507568625219e-05
3.47287984508842e-05
4.239299314605069e-05
5.2819038637666e-05
6.536978042350672e-05
6.353420080727865e-05
6.094554072419335e-05
5.855610582879238e-05
6.879632945591033e-05
6.872747473217118e-05
1.837147056440275e-05
1.636900129172731e-05
1.40897334822337e-05
2.367725975618935e-09
1.457357011736352e-06
3.147325990469999e-06
3.994634050854788e-06
7.589210472336235e-06
8.975894896862713e-06
1.375670438026801e-05
1.360349367877188e-05
2.13464523714582e-05
1.823942649703246e-05
3.00634718533456e-05
2.297519206725605e-05
4.069149968713239e-05
3.460283018571274e-05
4.187742180614911e-05
5.261971797930171e-05
6.414357055857859e-05
7.656151702775094e-05
4.083803866146359e-05
1.023876499003631e-05
5.752104410891185e-06
1.174119917986808e-05
3.385341169595596e-05
2.759419050995048e-05
2.806885073824424e-05
2.161618956815733e-09
1.370005713487554e-06
3.272306016897134e-06
4.319635758588596e-06
6.671502271706144e-06
6.580847853874107e-06
1.163097479338985e-05
9.230206519245774e-06
1.80409559325546e-05
1.410596446762264e-05
2.754841609159503e-05
3.095002113070113e-05
3.806251001459712e-05
4.456379666194824e-05
5.450013231405659e-05
6.801412027038827e-05
7.168706262836376e-05
6.538837812743346e-05
6.274888783661331e-05
6.048040866615269e-05
6.868176182830529e-05
7.64668984129406e-05
2.395733030470461e-05
2.459223329943235e-05
1.254663419471282e-05
2.143814840726416e-09
1.387439163485409e-06
3.194241877334639e-06
3.434273244349046e-06
6.851978029356994e-06
8.007994821558918e-06
1.310276365941624e-05
1.329741115280262e-05
2.060990434725324e-05
1.811771085054501e-05
2.975078982391449e-05
2.37880240230012e-05
4.045811345833475e-05
3.559803520198904e-05
4.111526915076751e-05
5.214007959540479e-05
5.914488881400764e-05
6.865462823327407e-05
0.0001206356516927231
4.153161392556505e-05
1.135163134606437e-05
6.205875074591019e-06
1.32012316280153e-05
4.103200207009682e-05
3.085095082119382e-05
3.302979869428851e-05
2.266934361244751e-09
1.293066556449647e-06
2.625571812532486e-06
3.60004062364636e-06
6.434923027635704e-06
6.372581627826011e-06
1.160690488645236e-05
1.002434139197058e-05
1.854072278641187e-05
1.439160162295601e-05
2.867906221873446e-05
2.509272541224789e-05
4.215750158746636e-05
4.906220225314641e-05
5.742326385537695e-05
7.021301360907685e-05
8.722567117008431e-05
7.397993709762887e-05
6.750456889028447e-05
6.5157544408684e-05
6.327103006576983e-05
6.960232525807074e-05
8.219558130671275e-05
3.090473279710076e-05
3.685489786156614e-05
1.274115576977499e-05
2.361802344603721e-09
1.602107908094897e-06
3.083633565777324e-06
3.500728686222988e-06
6.457103351833049e-06
6.2864679757028e-06
1.197987879932849e-05
1.285032790320002e-05
1.965923696954396e-05
1.867733752627965e-05
2.910283003357803e-05
2.322114953423507e-05
4.03191649235443e-05
3.582241234479415e-05
4.09944983393022e-05
5.106254234835276e-05
5.903018168040664e-05
6.230356442186939e-05
0.0001219647180633012
0.0001464982414997458
4.416983898325268e-05
1.336355036333312e-05
7.103916641340947e-06
1.561024099601518e-05
5.070849376273085e-05
3.475258020990899e-05
3.882783708392905e-05
2.448588358577772e-09
1.310604823536154e-06
2.684574631824859e-06
3.46562884769691e-06
6.395444426548232e-06
6.171623400200549e-06
1.139080965100351e-05
1.04766232401748e-05
1.873334004713837e-05
1.533496909705832e-05
2.917569798781804e-05
2.436748594998822e-05
4.582231341786066e-05
5.456325175038373e-05
6.349344554446041e-05
7.389162990411377e-05
9.025866649129029e-05
8.947555440047299e-05
7.726705232775918e-05
7.050949161520891e-05
6.886474262129445e-05
6.768208274327001e-05
7.231447875924447e-05
8.857637675110995e-05
3.90387616648448e-05
5.166975748509212e-05
1.412011982335022e-05
3.387759440746617e-09
1.558259906782209e-06
2.852318007012437e-06
3.532027334595487e-06
6.413110442639818e-06
5.800778784942225e-06
1.106618871070236e-05
1.100306171710449e-05
1.874616852930961e-05
1.816437259196383e-05
2.803291856210373e-05
2.356594535330127e-05
3.991106583815184e-05
3.626867060705425e-05
4.001761679776843e-05
5.173838606328023e-05
5.745326468356734e-05
6.228085846040489e-05
0.0001123981658873377
0.0001591878246025731
0.0001725156183793087
5.079086433685158e-05
1.63152155896867e-05
8.418834350183571e-06
1.964397109128101e-05
6.366059035694296e-05
3.955780081422648e-05
4.504762012134187e-05
2.499864531987833e-09
1.381173721372373e-06
2.709916339187673e-06
3.479209061837078e-06
6.009875183893316e-06
5.851219212505245e-06
1.111637479569309e-05
9.881027163036461e-06
1.854497547534874e-05
1.618445055241977e-05
2.962145512998462e-05
2.424049276642412e-05
4.740741712861325e-05
4.626217298963728e-05
7.114314269010114e-05
8.2004807831894e-05
7.909392032894222e-05
9.573323784802085e-05
9.279190118624153e-05
8.078321194671393e-05
7.485414438466729e-05
7.421157714807132e-05
7.375869208380137e-05
7.659008411961352e-05
9.253193515493049e-05
4.823692456535165e-05
6.290019042322838e-05
1.665098756813954e-05
3.538373057575265e-09
1.749691274143239e-06
2.485997428627454e-06
2.866152395867732e-06
6.011107089338742e-06
5.768247757175035e-06
1.082017030599862e-05
8.742275664483829e-06
1.765524385854466e-05
1.662076824568117e-05
2.706910635657917e-05
2.416031876892016e-05
3.802637883232074e-05
3.699423658062695e-05
3.942952415159866e-05
5.136635071436722e-05
5.899892727954285e-05
6.021794389939886e-05
0.0001096256338921039
0.0001407592128278269
0.0002079486928471677
0.0002049065776236937
6.055212777460247e-05
2.059491295247675e-05
1.033811308622502e-05
2.550510103926822e-05
8.148954299869549e-05
4.476154706675775e-05
5.21190195646513e-05
2.556481365124204e-09
1.421212119522547e-06
2.754684840648762e-06
3.496818335728661e-06
6.138994921446611e-06
5.508155832336469e-06
1.091912361030943e-05
9.509469358600449e-06
1.838732947339895e-05
1.580008012597792e-05
2.970047040218156e-05
2.57901778854721e-05
4.789009142361019e-05
4.32107975982568e-05
7.827716595113286e-05
9.237247566829517e-05
9.053672126855583e-05
8.271838939046123e-05
9.583299905557487e-05
9.437256309498477e-05
8.534057656889932e-05
8.124976283837238e-05
8.133200944404399e-05
8.219599039944806e-05
8.260218653813175e-05
9.776049252903291e-05
5.786953299245216e-05
6.67034241449725e-05
2.069495870781876e-05
1.100284741526484e-09
1.348211248265274e-06
2.430481951098435e-06
2.356290338811806e-06
5.214298361278297e-06
5.988066338099969e-06
1.045239169170169e-05
9.279219643711023e-06
1.69330631867333e-05
1.485157509480872e-05
2.640647780624372e-05
2.474656714287661e-05
3.480446938191725e-05
3.857194434288914e-05
3.854900437457334e-05
5.066166282711595e-05
5.87373323104935e-05
6.201082486188898e-05
0.0001042064765060542
0.0001330017732758314
0.0002080255604562409
0.0002673935990919208
0.0002521193238176426
7.555682659941673e-05
2.651513287452233e-05
1.31131543423705e-05
3.282638279700123e-05
0.0001045542969935116
5.203025728218244e-05
5.930498398947976e-05
2.594840307851236e-09
1.433858816044032e-06
2.722225524699916e-06
3.603933571964317e-06
6.260524331538346e-06
5.661949710917907e-06
1.087459812187851e-05
9.182890875287099e-06
1.819276314525004e-05
1.605868982900852e-05
2.974326702493907e-05
2.564265048380383e-05
4.835912735763284e-05
4.371652277369841e-05
8.051856415455207e-05
9.042402920162553e-05
9.542684645645864e-05
9.437065305336526e-05
7.790552714932288e-05
9.669275673257581e-05
9.642200675983449e-05
9.227410161590249e-05
8.944121475310024e-05
9.067455370794864e-05
9.180788175208314e-05
9.286445325545336e-05
0.0001058474474869142
6.995648120341259e-05
6.805080903363262e-05
2.159690534357369e-05
9.92152958745869e-10
7.078207283302259e-07
2.449512056380106e-06
1.700707846089979e-06
4.315286902181725e-06
4.918576390959339e-06
9.710219374496252e-06
1.002099122540033e-05
1.66983403189852e-05
1.43280728438321e-05
2.557672747200607e-05
2.589461009458676e-05
3.131897357734907e-05
4.224204195351451e-05
3.734806028325982e-05
5.000843286133105e-05
5.851519036020468e-05
6.175169836646021e-05
0.0001109319636235761
0.0001275212860826149
0.0001975588902061095
0.0002672770521223165
0.0003384432492518715
0.0003399504556913072
9.653314967029464e-05
3.459600586429653e-05
1.704972370621351e-05
3.986168960698535e-05
0.0001343668648673703
5.021674039554053e-05
5.366329482510872e-05
0.0001265921281503892
2.640348361446978e-09
1.42131336268133e-06
2.751260037391215e-06
3.501377999713155e-06
6.30299237657685e-06
6.024438085822176e-06
1.109478063358031e-05
9.140735583935123e-06
1.806511421274124e-05
1.58278089852745e-05
2.963940989581473e-05
2.62217521759148e-05
4.860026305634278e-05
4.423148862007068e-05
8.1207211115852e-05
8.413424248948936e-05
0.0001342751670089941
0.0001046785588501846
9.461441177947175e-05
8.727665996893064e-05
9.57830447965076e-05
0.000101818665001812
0.0001002584436707506
9.99072393660535e-05
0.0001006340102855116
0.0001042776365974642
0.0001053714505994546
0.0001205389232081333
7.963220055866962e-05
7.822654167205972e-05
2.745996823630197e-05
1.050592943291393e-09
8.595130770303265e-07
1.83437014814142e-06
1.705100770377792e-06
3.851669472773246e-06
3.86863188506225e-06
8.74604201235873e-06
1.19719127566216e-05
1.571835584971353e-05
1.813471119054006e-05
2.351553024219735e-05
2.559514321815839e-05
2.807346052751965e-05
4.232152559626129e-05
3.749001871199804e-05
4.853131821105941e-05
5.897556774777356e-05
6.112667696849878e-05
0.0001101344532401993
0.0001381619931364906
0.0001917568933568922
0.0002313207592826007
0.0003383423804102845
0.0004186111602890318
0.0004942118866559588
0.0001266202120149301
4.54522090032003e-05
2.256217597085226e-05
6.1518546774841e-05
0.0001544240839439763
9.144583888370843e-05
5.463765585657901e-05
0.0001851638469144665
2.635482797810079e-09
1.450099823079743e-06
2.81626939266988e-06
3.426998272062512e-06
6.300211698905787e-06
6.157581239490776e-06
1.120046963604353e-05
9.316888785057894e-06
1.82614635203917e-05
1.539662217544012e-05
2.96542089347006e-05
2.592117530260735e-05
4.88041392262773e-05
4.499158938368234e-05
8.201568876184177e-05
8.198381950468612e-05
0.0001400109321194177
0.0001456646589859385
0.0001003608107348345
9.785806698000082e-05
8.491348435287831e-05
0.0001009260929654543
0.0001075010840386598
0.0001097691249355693
0.0001101090283344444
0.0001137650154403814
0.0001194162660025207
0.0001230010097903866
0.0001255538467358643
8.236485183392095e-05
5.4024936977121e-05
2.876166406776343e-05
1.20029301324149e-09
1.096774204979571e-06
2.186632373883218e-06
1.906782782660198e-06
4.314563828361545e-06
2.816666044709139e-06
7.737497773759005e-06
9.490758384126784e-06
1.186600555226288e-05
1.884354860859275e-05
1.716275177841078e-05
2.889031796584663e-05
2.511252256376195e-05
4.170014881872882e-05
3.735254612855968e-05
4.898982664888033e-05
5.978213407534634e-05
6.126859898867673e-05
0.0001079322204070105
0.0001363120662252525
0.000207131727698021
0.0002424426899740077
0.0002932781203250152
0.0004185814119896537
0.0005061024362488902
0.0005944189511426113
0.0001697890574303546
5.98130336113298e-05
3.133566449442575e-05
2.439982395675115e-05
0.0001502189376366623
3.6782975645304e-05
8.566485891755184e-05
6.177588871493102e-05
8.470011085358622e-05
2.428111435714556e-05
0.0001853385039820945
2.63926734714028e-09
1.465213850796141e-06
2.820576378015932e-06
3.783551127660897e-06
6.451788195207953e-06
5.914585180233683e-06
1.131966055502916e-05
9.425088406654502e-06
1.853687760799121e-05
1.545934993402247e-05
2.969679342163448e-05
2.586601881801159e-05
4.889817654547157e-05
4.476359487534635e-05
8.259352534600684e-05
8.358501995469311e-05
0.0001414584780729613
0.000181499687526801
0.0001587419514894285
0.0001105744927437255
9.733637705531017e-05
9.330161662701366e-05
0.000103606326486837
0.0001147393663938542
0.000118022804251144
0.0001222348407065777
0.000128720389592206
0.0001392749302314639
0.0001323560044581758
0.000144676446232617
0.0001902719270352809
9.119787995835896e-05
0.0002443715988840979
1.333612207332111e-09
1.217559486829165e-06
2.367294056420971e-06
2.699018207444589e-06
4.211133773231275e-06
3.557122195713851e-06
7.213000187294052e-06
7.266684162501018e-06
1.416234549058411e-05
1.818625455978347e-05
1.661061947779596e-05
2.790474091515258e-05
2.220356086942189e-05
4.102484381840125e-05
3.753025734171877e-05
4.734569399524591e-05
6.658217756220057e-05
6.176365097843888e-05
0.0001085648352706838
0.0001330947521375799
0.0002066439646435533
0.0002662460556514901
0.0003297626749138407
0.0003471024827314614
0.0005060750328652874
0.000599028140156251
0.0006917648927591333
0.0002312827798504729
7.887326914994626e-05
6.499188610636843e-05
2.16849075105862e-05
2.431983467643894e-05
0.0001816209431519774
8.073516600615684e-05
0.0001286734067739223
5.808887969564838e-05
0.0001043880891576547
3.073990560152678e-05
0.0003344590879645592
3.150464930887388e-09
1.451514789768853e-06
2.852074394581902e-06
3.82505204072152e-06
6.513992515320258e-06
6.418487310835403e-06
1.139485475346774e-05
9.650359322482712e-06
1.866624213353748e-05
1.578791730501698e-05
3.010413775577832e-05
2.506983562239903e-05
4.923722460743983e-05
4.392660234363078e-05
8.316227013893531e-05
8.361086452610968e-05
0.0001429705065725538
0.0001832476281340147
0.0002352550951512754
0.0001719207812283794
0.0001069646487755324
0.0001042135448022565
9.269456792510236e-05
0.0001077629701892219
0.0001204911525271768
0.0001279295049228999
0.0001365430294387937
0.0001484288189855462
0.000146582320355325
0.0001568835837991196
0.0002006866280879833
0.0001490270022339418
0.0001003115973457534
0.000719372343312874
4.78608309855112e-05
1.339536992586031e-09
1.255757845774059e-06
2.431865999736011e-06
2.641588119967447e-06
4.488482414384629e-06
3.568708906872387e-06
7.789148871415632e-06
5.486112341616297e-06
1.358729687427363e-05
1.6249416860004e-05
1.670355912530269e-05
2.695082128706859e-05
2.459922802634854e-05
3.820403437199639e-05
3.607575452001702e-05
4.433213739972655e-05
6.804214236146265e-05
6.793595659170383e-05
0.0001101239388097961
0.0001344581670205518
0.0001999224318214445
0.0002648282521492908
0.0003368891272240913
0.0004048920885423571
0.0004216961180026013
0.0005301471473006326
0.0006973089357334616
0.0007930326568038877
0.0003139595781287516
0.0002249429157637408
4.725559779968176e-05
3.362059243794831e-05
6.453341436740177e-05
0.0001946890996199548
0.0002420340871353762
3.833215403339432e-05
0.0001166022349188979
8.159725261713251e-05
7.142416906976346e-05
0.0002193766061668237
2.087379935853384e-05
7.704656702922987e-05
3.637656238548849e-09
1.593688973806512e-06
2.959543669182102e-06
3.754934808070298e-06
6.60399986889273e-06
6.112886393491159e-06
1.160906444355548e-05
9.695191947542612e-06
1.889722732714734e-05
1.564398221687594e-05
3.037597436919831e-05
2.616957851250382e-05
4.954637282033397e-05
4.393106878565191e-05
8.386358540588203e-05
8.306191530848917e-05
0.0001443757700825007
0.000185195014328573
0.0002378845890636726
0.0002913227519641711
0.0001736236385136521
0.0001190912070420733
0.0001092898959236651
9.632132178781748e-05
0.0001117802277947177
0.0001271555416307761
0.0001401541777935914
0.0001510803036304724
0.0001445680651635819
0.0001393156056067408
0.0001812095812601827
0.0001633179633439182
0.0001982526686640677
0.0002421616079271788
0.0001151687792708367
0.001329367195614452
1.466644559894637e-09
1.225778969136249e-06
2.561189969186994e-06
2.833804585787422e-06
4.855862689653801e-06
3.450887176747263e-06
7.086338023656017e-06
5.959937147631643e-06
1.29562614023256e-05
1.25367308937734e-05
2.001238146359165e-05
2.639297162845783e-05
2.543538484240477e-05
3.224988066586137e-05
3.858178452744292e-05
3.961689853644391e-05
6.924954723231795e-05
7.130330026455923e-05
0.0001192724048812806
0.0001375666334955998
0.0002020953565120633
0.0002481696195368261
0.0003362389370188817
0.0004166217533088863
0.0005027813130929355
0.0005086951629451359
0.0005575206149120558
0.0007972932010486116
0.0008932692648253275
0.0004299470765385467
6.38267904726346e-05
0.0002099308103151977
6.667349187716488e-05
3.470415803902187e-05
4.764500253172934e-05
0.0002436249062617017
0.0001985527457874947
6.321611970548738e-05
0.0001380291638499933
9.502866146246983e-05
6.400069759712496e-05
0.0003597764452709287
2.702169542763082e-05
5.984085143539254e-05
2.873122069551286e-09
2.005062924797591e-06
3.215705498499594e-06
4.280105081102993e-06
6.705159762416074e-06
6.272659094181466e-06