/*--------------------------------*- C++ -*----------------------------------*\
| =========                 |                                                 |
| \\      /  F ield         | OpenFOAM: The Open Source CFD Toolbox           |
|  \\    /   O peration     | Version:  v1912                                 |
|   \\  /    A nd           | Website:  www.openfoam.com                      |
|    \\/     M anipulation  |                                                 |
\*---------------------------------------------------------------------------*/
FoamFile
{
    version     2.0;
    format      ascii;
    class       volScalarField;
    location    "6000";
    object      omega;
}
// * * * * * * * * * * * * * * * * * * * * * * * * * * * * * * * * * * * * * //

dimensions      [0 0 -1 0 0 0 0];


internalField   nonuniform List<scalar> 
18230
(
28416303.73502087
9364204.427479023
31812404.78095114
12320753.48673633
6277987.459953963
25559502.00328362
5690482.261888764
12368446.67377023
7667117.421959162
9239640.368437847
7885699.038817555
21580357.53805595
6422782.348234079
20679423.55893707
8291898.261333716
5708356.471785566
11642203.31569009
8906600.383857882
6812263.944184652
18399384.65516383
9990885.703332935
14317277.23214594
18731221.62860925
5140651.071271335
4345941.286291293
10423675.91511172
10403603.93129828
4969588.929377523
5274750.853199825
15435336.56743658
13379465.92588565
7240479.46558498
13406170.82878459
14313080.71262696
3570490.558402318
3547491.67737959
10733279.41126918
9665613.771677712
4102644.93735698
2821851.654633826
3914842.722766858
12967980.76003233
15444350.05931193
7558430.773336799
4601296.497280746
10828474.11860928
10674309.11804024
2818724.186354071
3029864.996572994
11107481.15399079
9665045.116772223
4355746.451005618
2748237.094593399
1596045.372120256
2795198.679947107
11072547.34922492
16046276.72006306
6370359.788356918
3772676.66001516
3323906.818558568
8670059.476818288
8514490.617809579
2334820.558096489
2834658.242288895
10305511.00701708
10056535.15308201
4141899.150642776
2835043.332386339
1474233.927895971
1024614.166369566
2119206.807694095
9597505.304836135
17162622.93909557
5778577.756716367
3625824.530202699
2602270.637643008
2739725.739575452
7200044.020759559
7142561.859414333
2150516.976678788
2925296.011022652
10138845.83049446
10432605.82853643
4292851.466072918
2638699.154201575
1483148.043338163
996325.6283740954
828808.9056546792
1684730.010567009
8441960.123341298
17537408.97185363
5953239.787535375
3730177.30985667
2781681.573189974
2103828.101276765
2365341.864402281
6226531.08241311
6280368.818287571
2109546.308169906
3684177.643318155
9603464.103407325
10796691.68888867
4245443.532502744
2577326.263571374
1372714.477604578
1009596.403328832
715625.0019069767
695066.8065564563
1389239.287048408
7459270.402690944
17090925.11372077
6218078.030302415
3797882.351575825
2896810.657897172
2295926.490394084
1814938.336824095
2123529.915734705
5542158.240175989
5732694.408793771
2060450.893574526
4415542.521098552
8814389.494543208
10721438.29550225
4108081.105745333
2453836.282131392
1335298.712068729
973355.5471956144
743923.8627612335
591481.5709300132
600247.9990952141
1164147.002914098
6609118.07806395
16922945.69164928
6369957.724893908
3842273.988393283
2932872.489192104
2384830.063412162
1971358.913129605
1610914.611657686
1879921.740181356
4980892.931996561
5401847.882718651
1922966.037581013
4392387.633425296
8093001.911909185
9691508.010729004
3813217.725127636
2226135.229327684
1299499.190463022
958271.5934883708
726090.3778393372
630137.7748844393
507089.934381247
524955.6385839765
987488.4369506673
5807763.92475984
17377799.67749041
6240409.928464171
3875021.107942345
2962109.462616463
2406186.494530311
2061869.135321438
1730763.365838539
1450722.947238106
1681938.423337917
4527935.431994574
5217557.392236318
1870785.771350221
4184395.762923024
8554954.201127753
6678140.15596496
3293584.008639676
2037766.596152647
1235321.470025875
941254.4249085207
726787.2592073771
621719.6847834584
540456.2920846884
449087.1744212341
465989.7585085007
841231.4522159095
5089738.856463041
16615621.89062582
6106503.092644695
3806067.900961429
2984271.395141102
2418956.886054608
2074034.984152497
1805859.609610008
1561424.90605676
1326559.872250597
1519516.631117577
4089474.220411667
5079491.465069511
1919720.633193066
3931127.67400824
9184503.337210674
3143275.099407563
2337992.305677593
1792805.914768969
1176853.922954121
920402.0215889602
727274.7659707299
628094.1402570488
534995.1205487162
477121.0303152389
390346.9306725226
406941.7937393693
712828.6540812234
4453325.648741699
16861932.97555467
6161219.759062018
3819772.22086905
2956212.614837843
2430307.653165495
2092078.939967781
1815738.312091884
1627327.059613493
1387877.241173787
1215381.611286659
1367406.0500055
3663583.712048545
4985700.205382959
2048175.508133964
3713416.938977012
9113338.619441789
3213349.767396105
1725669.643026999
1516346.192110151
1113013.841772675
909476.3531524424
726163.3825404482
631597.855586524
541533.1308420904
473829.9967111291
413321.7987126297
337170.0730311473
350270.6868639243
597514.8760785544
3859714.137501057
17815111.78908232
6014110.405175632
3875899.994159373
2973175.115359923
2425252.768975549
2100649.454168878
1826125.981064757
1636794.037133189
1443714.106126232
1266853.193437573
1093384.618194646
1222216.511287135
3241377.390354925
4892636.224207416
2258551.752828818
3591102.712080173
10605025.89892272
2975617.007138771
1881926.014783159
1294317.5732534
1059017.099491386
895236.6773053312
728812.7648201035
637683.8647584185
545389.0048774518
479799.6273879434
410041.3912494449
357116.7714340533
286189.7055397928
295686.2097274186
494053.2858248872
3293009.943795526
17540328.64935336
6147206.917908994
3867751.071591211
3031384.841452506
2438486.298596074
2108815.247727391
1828733.003732522
1651458.113842597
1446925.172492756
1326162.436043306
1091427.983745418
984105.6358870387
1077205.929120511
2778626.082139941
4770698.658848341
2488837.619333181
3566562.83044539
11552969.53572057
3309914.054311822
1955867.111333695
1424257.056457982
1056173.990213189
888868.4879195427
736450.1772806041
644540.0177556439
551856.8553982588
483801.6728323711
414844.8785806998
353567.9223587282
301570.0722947263
240339.7180300898
247165.5038366827
403622.4950310482
2810858.614957581
17612760.92011314
6384615.40915748
3920130.840378704
3034454.113460032
2483247.152626158
2120085.21133421
1829295.427013316
1656197.497948874
1452488.437877385
1329270.070270443
1132665.050856113
988062.9309193834
846110.0889327949
934990.4240967124
2293792.766692603
4547696.045862208
2585910.976382017
3514230.752527013
11698618.7923053
4115612.4090924
2247181.725911086
1551396.129069668
1167390.103351232
927680.9856913984
752898.0668174885
656245.9856398844
559284.0612515194
489694.1626677134
417360.3482589056
356889.013482535
298025.0799265181
252689.2739037937
200729.8914789357
205043.9003733754
326141.9780118882
2342021.634371025
17222038.8568679
5873157.114935869
3943241.522586705
3086602.325980665
2476958.99361528
2167001.341695944
1828645.088586509
1653898.315572103
1450355.962598614
1339119.578182309
1132062.729397013
1033974.264645597
793206.5974166729
723732.3399057984
806385.0961266091
1819299.764235187
4197364.691863161
2612861.356446296
3360157.736503087
11195156.79827624
4211455.128612523
2521152.303789915
1841453.313470787
1318048.801974302
1014757.744097291
802310.5881663499
675618.0182456466
570986.8986324969
496823.7416754597
421063.5211216503
358486.9798573938
300068.7699340406
249465.8675046643
209729.8429989777
167261.3281596508
169746.2731064855
262308.1774060706
1905458.634678803
17102057.04374385
6277424.878233024
3722435.91656342
3092486.338503335
2455262.670286459
2160590.924042855
1836883.243784087
1652733.133434221
1445885.644439937
1343192.225755587
1134707.542541663
1034775.510687393
821319.899980856
684972.0724825069
603079.0897545355
684766.0929755442
1376815.805765552
3758162.708101412
2600663.709771418
3130420.041590277
10840344.19709549
4011122.361092885
2508102.449890322
1999198.403998432
1504247.108939626
1174851.950076559
895398.4051014371
723145.0342120741
589235.8106258814
506962.2151109653
425883.8725366055
361228.1222328591
300662.384067537
250643.0961345625
207095.0380536784
173929.4131666601
139718.9657149819
139683.4459501502
208538.809950497
1507422.139890278
18166704.97185707
5741265.949022827
3829973.733793272
2920334.176021145
2447712.064983469
2122665.151742551
1832718.804533081
1659518.569031525
1438504.991247381
1339461.18383474
1131343.487624805
1042200.79115013
818517.9791571337
713358.5679366948
550663.5481082569
480851.6071376916
567645.9267339947
1022211.175343128
3294622.033502509
2548910.358255528
2857542.005825715
12090113.18156409
3586413.566406802
2384476.895455144
1932631.519288956
1543493.164878376
1366426.629436282
1006450.007978317
811174.5776317822
629459.18203478
522740.1947808361
432452.8394443968
364576.6948272931
301720.2579075259
250675.0726250073
207392.4304508108
171694.9857787738
144432.4025858211
116494.9930746103
114236.9299517269
163797.1821372927
1148029.691121401
17770088.68320677
5728501.874092287
3713946.503310808
2998398.411512214
2382431.642689708
2128206.486366381
1814963.726701441
1650728.809639892
1435282.923992724
1339969.873654086
1124013.482024129
1040554.504109943
819580.5090117167
710475.6701739827
570748.1860287251
420012.8947378473
368809.2817464553
457591.5909712718
762375.3191610245
2840172.959861876
2445599.36929619
2564261.025937407
12046210.71742817
2839980.378446389
2224646.365064622
1808129.596139114
1474356.911771788
1384886.766138595
1075850.458546564
909941.0877666569
686103.1821597652
555942.1863287719
441582.2192658438
368465.0669908766
303454.3381878476
250967.4018207137
206951.8472500255
171568.6955210766
142546.0153181053
119515.8766850934
97150.91173357399
93455.82688619102
128247.2292808106
829995.8267127865
15996107.85081863
6374462.65727984
3939452.579935167
2998967.616337249
2417670.309301321
2106155.294183467
1801022.160560557
1654934.477160554
1423736.069806152
1334858.345356224
1119901.516236366
1031805.592423202
816867.15714209
711417.0627860484
569743.5865609286
433979.8568414338
312771.0080082607
270041.1298852662
356977.6053813893
568113.3328183853
2414338.097808991
2291684.194976613
2261544.851858264
12878280.6925645
3773324.992704457
2108730.791926261
1730325.66054941
1442736.233688665
1272970.68389575
1076579.555702195
956695.4563581966
738015.6913260219
601631.0655794682
460087.5676801681
374467.1296865308
305681.1387656415
251657.0083275907
206701.1620903031
170896.0898799842
142200.8723024164
117964.9045682033
98893.97627486174
81060.80775617454
77222.98216299484
101011.9600573292
573451.7904849566
15292784.88504509
8196080.385446643
4343815.570133639
3304675.828031616
2547479.970964626
2130323.044832321
1793981.905041555
1644577.26113836
1414124.684729951
1324257.153935024
1114062.853332272
1029068.904047163
810230.0612977423
705617.8371572342
570921.7463996006
431243.0884033982
322426.5316256075
223115.0635661032
187693.1812462254
272321.5104692602
422014.6734976927
2030168.326342914
2128768.543244605
1950206.917613455
11627929.77383308
2886653.102732641
2406201.372018617
1742120.690141401
1433594.252488099
1255891.805909754
1044354.947149376
959733.3200556881
766110.7239846514
648223.4221845334
487141.1944510126
387650.4269560152
309191.0564242815
252875.0420800155
206528.3898094521
170335.4818249606
141496.5268213575
117456.089170043
97635.0169007559
81904.85999567246
68585.56530518057
64794.76226295956
80526.40498753461
387319.8894554929
13894131.2552217
7361972.237831512
4729957.249551211
3803528.408556068
2769172.928409165
2291285.287381289
1854575.701430422
1635153.888518152
1407548.676786639
1309479.680417752
1108675.506420085
1023691.833550052
806600.3767090106
700063.7733967833
569734.2871393616
430634.726929378
319408.8404019749
228702.9233315563
148872.6330889091
132876.3707969515
208179.7289572879
314626.7658806626
1709249.761060763
1958698.257544374
1657395.611154576
12054147.81055979
4268178.783368459
2253800.183281285
1911321.025943563
1467213.990553465
1273162.558182737
1042840.910634709
946819.0530229087
766985.2258758333
678503.0250586916
513061.8008708446
409389.7931829586
315589.1667142308
254584.8289327219
207151.3876762175
169746.1831791278
140809.5915963688
116654.3092467216
97018.73953521342
80824.52722345253
68855.31812310989
58770.20135171973
55470.36417657567
65346.82996357122
273388.9946839332
13371138.1543142
6143911.365947611
4281790.16605874
3917639.051531862
2979821.177166929
2495951.068094981
2002579.74739171
1702309.191085412
1414828.113356521
1297034.604994063
1100928.392717681
1012282.268462072
802701.9358248934
693701.8962923784
566379.3137975498
428696.2592688474
318674.8881768273
226385.2006870547
151389.4952767685
105575.5445660431
100169.5788617851
161738.3504016326
235767.4821862374
1425514.28853093
1773512.209611957
1399831.49135761
11670839.69760532
4488839.895020816
2641728.719840117
1952698.10644218
1554026.488660615
1320228.751538376
1063324.083068702
936510.0804309567
764049.1289704872
679965.4572949643
530887.9706316375
434833.5577364928
326532.652736662
257955.6252031128
207587.4807818086
169798.7254443721
140177.7647058369
115850.201863803
96184.13501827397
80118.73133962523
67940.99375318717
58596.52511855178
51196.59680666948
48501.61605813162
54418.10847301887
204146.9429521636
14429633.53658446
5056829.944567425
3868944.847397288
3535694.285924995
2889758.928020663
2707212.358097204
2129554.429727509
1818967.836016426
1478337.728783466
1286547.026337965
1093260.019965923
1005396.249869644
796047.9507239134
687787.6444289836
564375.7183592892
425895.0041413552
316662.2389666594
226019.8544653069
149586.6697464814
107769.6617007651
78376.2271103431
77992.15103165657
127077.8721464484
178275.6786694614
1173150.160498154
1584065.625508513
1180403.521133376
11477966.21145932
4408404.054028871
2697895.69869873
2096121.01118905
1589167.944347915
1380974.756774028
1102231.354006167
951739.9218846674
770126.0548656787
674358.6967603908
536297.9119071686
451886.8827841007
338075.6793774535
265572.9050254397
207834.0918347641
169706.976402244
139739.4443032613
115104.0663584931
95371.56576857826
79296.34877874324
67270.81928339669
57761.70730096287
50769.08240756462
45147.86228856871
43164.00549057233
46635.33220063165
160404.9663549546
17377792.53477617
5666625.596824553
3820307.547350095
3416798.824019191
2722444.322774894
2591872.351583333
2150669.347653828
1938581.911317714
1559417.455030353
1332738.533517202
1086011.099121645
987436.7589374204
789098.3106514292
679080.6880063282
561734.1043112987
423362.6045076845
314293.8421558216
224444.7469680303
149393.0547148694
106587.4202499368
79994.19197163837
61779.54881965349
62707.11965861654
100946.3350752327
136707.1390807153
957556.7914907628
1394439.648718632
1002935.599339103
11476461.13671095
4248804.326844999
2669908.634936513
2111541.258047663
1638303.690127948
1426661.111901801
1136503.532910765
989376.3133960456
785770.2965527676
677755.7996683781
538533.4081116022
458517.3534550964
350252.5083355503
275886.2495543491
210151.8769528342
168341.6523708306
139181.0563808987
114278.1132921372
94619.74020321756
78482.77023099831
66547.34849662357
57099.26171231303
50017.50375182316
44586.1957105883
40232.72539746298
38751.74773168319
41006.02287114164
130923.1818118231
17959476.72497232
8309303.996965502
4608215.299091849
4042360.25693582
2810948.91648807
2495521.752194691
1996234.502802184
1988310.362053568
1574387.771750798
1391916.15133842
1101013.890649187
968243.5886410584
782062.1246352397
668037.2496954164
557534.9031184099
420548.8426604001
311840.6138864713
222853.9466627354
148529.8261451748
106491.3536194915
79160.92322087369
62996.36442430138
51186.59427717849
52682.50643880055
82130.66976399219
107459.2032019845
775803.8082248311
1224815.018907689
844337.3941841632
11488686.37630626
4195297.353850425
2635559.336172602
2088940.340013117
1624029.141971856
1457517.156728095
1156394.582515324
1016041.473748906
801395.1777785799
689883.109628252
545604.6791980818
458304.6988162268
356091.5727913151
287240.2333786208
212753.367040494
168536.2772272047
136724.7691468863
113159.2143712515
93824.66483981095
77709.35953605184
65848.09095966197
56413.65083319611
49412.88533187337
43844.87208927446
39587.44037279434
36011.51181913548
34932.51679793034
36821.06245138327
111088.541704544
10962244.82270571
10514696.73219423
5869225.187778631
5527317.908804441
3324107.473260844
2633101.318614582
1974498.935515816
1786881.083364921
1496514.286918052
1399017.763582598
1105328.329033052
962676.085074087
776281.3937242278
650688.3410580682
551814.1742467878
416661.5684446293
308959.7201000561
221049.049105651
147563.3727240153
106014.5546931467
79131.50340138194
62473.68384470489
51916.0012736164
44376.02392997558
46175.70062268134
69308.46808393157
87377.62146976106
627262.6432074234
1049910.258798006
765468.3841588967
11464149.3886084
4178910.623717939
2651677.324796719
2065723.578246442
1601388.136774957
1428788.154430215
1156791.46407947
1032935.21026731
810940.8985764896
696067.2179036264
550300.1956394366
463663.832822838
358611.8967901159
291746.6879966904
220527.1159035521
169562.5923012638
134861.8754752805
110373.7904006295
92658.22565814307
76908.84389287047
65183.02510680093
55755.10337647727
48818.70035584796
43294.57815841561
38844.08132985136
35291.95341649128
32340.68412965972
31629.02692964808
33793.3612069384
77257.58314841638
11054681.27369767
8706329.461935034
5232122.242812964
8053161.758977313
3839520.465202795
3251786.520416553
2135340.299312946
1744190.755956779
1399046.457217314
1321433.338385928
1085775.10828576
948612.3248400928
785365.7333662339
629914.493440506
542391.117953892
411170.5284641964
305329.1188015107
219258.4985724123
146645.7107733936
105507.6744825535
78865.01507621526
62490.7963988464
51564.73245359406
44873.97390856007
39945.34984602495
41956.37996267288
60604.03940632444
74012.08424074734
508890.8599120089
981461.8791562552
840777.7525878943
274139.0948061653
11458123.18710275
4152591.050811681
2625617.305289041
2091013.398402152
1592481.609203559
1392692.318136066
1139421.327125162
1028900.107208704
815081.9046701337
701735.9660168954
554211.9056928859
464722.366695016
361506.5664906078
293397.9908892395
224189.2833211448
175557.7553809712
132779.9513408022
108114.6804507565
89860.7659075233
75691.42498123196
64519.54395199944
55106.64012201159
48253.91909717128
42747.64185019331
38327.52667314917
34578.83714143672
31603.05611218232
29428.57585294141
29318.96711843576
31197.32856719085
47089.14939943136
11193302.36372962
5742073.093735922
3548463.876912449
4630069.255477179
3821585.240821529
3802142.734824837
2445546.72538256
1815652.426174407
1437687.465365264
1216446.115899698
1058119.185734086
922355.5227718184
793740.5990362604
622245.4497820559
527359.4080240803
403882.0373652396
300251.8726912261
216725.9374972383
145721.6420635681
104983.9072746811
78571.37911724948
62330.25132375703
51577.42726601312
44653.6673115264
40353.20982276554
37104.40880965647
38978.86056367939
54427.87573479408
64678.24701276609
381900.5870335727
835000.8786751423
804351.9991218877
198809.525002844
12028130.35100633
4103666.009274488
2557984.131789887
2071261.525123454
1602124.94748165
1383682.197391622
1124519.632028041
1013152.77219849
809723.3435764832
706197.8916691138
555016.7681100378
467597.7602651265
362974.6180763917
294683.9278423828
225257.0567336284
178330.8798673927
135042.2272563547
106709.8791561472
87426.94011046257
73102.82609749198
63378.00778315249
54425.80315093278
47693.59738527938
42221.43022100114
37810.10835063839
34091.68140336899
30937.73251195882
28760.69909383578
27362.09377656273
27265.78342406652
29095.33778080951
36469.42600374121
11323490.29668168
4599724.008870404
2889418.688893606
2745143.185744041
2439316.729941368
3871993.078395202
2510214.079464522
2032457.189924071
1560349.871044566
1211875.045582167
1078641.299378641
871414.7378021893
793226.8219035178
613902.7255783352
518613.6820418491
393496.387828331
292519.6853633669
213416.7849193686
144286.8722153908
104485.9559763883
78292.56034970086
62124.08630363986
51468.72307630346
44655.20481951976
40187.76097135788
37505.08468865773
35365.09495690745
37000.55283689787
50410.25959847619
65865.84887651486
478315.6756714339
133640.1835798322
838945.3068633438
807253.8709205718
521669.0956050232
78332.88974892146
218439.7193097911
12043842.4299306
4158497.409815935
2531490.025729195
1991084.744311061
1572651.221703633
1396852.47750842
1116665.099460628
1001552.741096679
802061.5050994551
701316.6953483419
554655.7930744716
467738.1809272292
364102.4281614673
295904.0374112078
226266.3510342513
178867.653762224
136776.66169207
108175.030277197
85378.91800417556
70584.41170342857
60824.89506359911
53245.29007350965
47041.63419047214
41675.85879585842
37303.18283800814
33612.20312694756
30496.26953744614
28182.40357451301
26573.53030729514
25411.72008312646
25049.07194807635
26230.47609148332
27217.87191251211
11836264.59395812
4603250.899374073
2788141.115306028
2321985.705865627
1944337.261439583
2011306.749113298
2063501.18153897
2104650.369064255
1562056.554150254
1240049.101674503
1066453.43720791
848470.8888649528
771834.9776627811
601484.9907783745
508297.0505112056
389614.703025851
282329.997061086
207804.919650812
142540.7347761595
103727.7231341052
78033.78572989185
61965.85915400262
51346.18014261507
44580.55564043897
40189.10949548204
37369.76457162332
35751.49184912966
34584.68977592516
36096.96744121386
45557.98984139589
63914.7921150353
50606.69906505128
323321.3602375886
91687.10243176765
656034.3787395685
761832.6661956242
460230.8641451121
66331.18015297576
115792.684481484
11716730.74584755
4160138.330240106
2545151.68639618
1970171.304816638
1554261.778932293
1353449.484896378
1117587.877767801
990595.5980940721
796232.7848343301
695344.7432301106
550348.7143894214
468737.9500503933
363104.1162635963
296747.5488210054
226712.3765893748
179436.9838091897
137138.7700664645
109557.0688850017
86313.743145473
68897.17954282435
58268.75740961734
50746.25751019357
45836.05556882165
40976.91652770245
36746.34521263813
33127.43963292372
30066.01985128853
27803.94646172557
25906.57658851314
24584.37694155808
24512.53386639964
23884.83574617399
23457.39050045784
24926.0220402155
24878.04511044455
11769147.97142256
4707621.105370532
2838119.117119213
2388530.671246876
1842553.391522282
1883193.42185568
1479167.685810497
1833526.337730544
1486153.720127061
1271813.914302789
1060820.114023863
833310.5184413217
721143.5693542099
582103.5043570078
492261.2913362229
385465.7733196098
275328.7388417069
200479.4935295466
139721.4483592985
102750.5235920384
77635.33302387138
61800.28993957159
51242.36453952362
44497.18732147172
40125.92195711049
37371.22848781075
35646.31114898816
34645.81266640971
34469.88298106658
35221.157293337
40240.62055548801
55485.83252916991
45909.44006369187
364242.0967309465
114256.4201412038
75586.00243722655
677289.9226221314
584683.6586896831
728115.5902863479
193863.1999522154
38759.25020683774
83080.6775039178
13069115.03263875
3788875.459793244
2479462.818923979
1971797.124110919
1527810.437995683
1355437.380209185
1096844.010513342
988125.1907898864
788978.4481469021
691879.7364614514
548411.993526819
463537.6345844877
362249.4991889242
296034.0821107852
226505.9846811626
179736.797817224
137463.1684818822
109815.0734332385
87151.07523418352
69629.14462080819
56174.27932718872
48072.26432706357
43122.57692187798
39649.88256119825
36012.01388343175
32566.99874538231
29621.46620204176
27430.14195144687
25405.70780522277
23891.22088505261
23319.51288027488
22178.83370704273
21999.27387657498
21786.39421049895
22442.02318229351
22300.05782884639
12214140.97215203
4775009.286490226
2867287.69434281
2384106.201847619
1865400.679205252
1878506.191975281
1429491.71331359
1384302.294412344
1229421.518693473
1253077.230206467
1026417.88456524
839279.043745469
695597.0863981763
569031.5920237449
462931.7144501632
378992.6537311962
266764.0484971988
194637.2176664714
135900.5785647723
101243.2463912412
77109.42493621865
61546.22331465579
51144.66393741902
44432.37126557217
40070.56669685263
37312.59810962747
35636.58043618804
34653.29041568373
34521.38003307554
34801.93606211852
35974.57581206411
34881.51692041934
41320.76974166959
46579.52038080769
54586.65329825719
192958.1463001673
87757.05008336387
70041.72742141099
632948.7935262275
517208.7197870223
699989.6803549316
112446.2139125288
41600.01516082798
67292.66171870404
11482708.14880016
2826406.086141696
2307737.34969775
1885498.296166098
1511066.570516646
1323098.176675834
1084626.252013861
973791.5683991811
785138.9552330909
684374.010851717
543989.0396133732
463147.0261069405
360153.1626930409
295582.7512349682
226036.4106829188
179711.2741663059
137581.8822570349
110086.9716719308
87423.53248973083
70269.56303516663
56526.08578913214
46098.88966418996
40468.02676034295
36714.46279721118
34676.24306566161
31801.50574057358
29083.50046902319
27010.26178629457
24845.23210954114
23534.9689117999
22623.78471293655
21904.92235953122
21599.33601926587
21414.36042997688
21280.7233148311
20910.19526782529
22115.74302865136
20918.90199909665
22984.20923982981
12245498.14176491
4388187.553207416
2838304.210609612
2352704.249938212
1881215.392293622
1805316.41853312
1418061.377742106
1365784.211775326
1075630.248783041
1119223.247461339
964894.5942553221
862401.1092607237
676176.6209149682
561933.2859537246
440042.9367861668
362994.8163188575
256604.8981404618
188770.0285086862
132539.1277652961
99270.21184821252
76310.21441097218
61213.5684744617
50982.34522528671
44366.4291080488
40027.44444066805
37272.50490738256
35582.67387822692
34629.05726619661
34554.37334826396
35055.97736381419
35033.58211348788
35074.55559084814
34911.83833306763
39883.48129554227
41447.81594915179
49382.88634876852
147042.7763676771
85750.54086508222
52106.72758306628
306440.264475852
664750.8831473313
599406.4221315776
218845.724004212
73692.21229946311
34762.73646297596
10903855.42998475
4042931.661605924
2102046.268752276
1771460.076963637
1477322.344222096
1290926.291419348
1062994.350101076
953050.5641512951
774645.5778394149
679799.7983381639
540992.0520416839
457967.7341515231
358826.5026557723
293965.2386411961
225953.6977798693
179600.6337098363
137702.6873588127
110290.3818958414
87649.81193244855
70515.18531545052
56665.24907126933
46355.99597758095
38157.62903661741
34218.55577276169
32006.1837650924
30463.00679962784
28310.97558611003
26454.39664818663
24239.56320406991
22783.96804239578
22781.90454416231
22370.16951384228
21214.87655812938
20986.4359144259
20629.43665500473
20426.08033662469
20527.37247735193
20440.55082903231
21148.67016004377
20237.03248101427
21370.26863829189
12106942.56996776
4105376.945481044
2713124.166609329
2261915.69078452
1824321.654147027
1823319.111308445
1395141.055296701
1356568.520708625
1054702.2736615
990002.3239514035
837839.2519430091
834906.4680266071
671187.8429950628
568348.0522448517
426076.8758550588
341569.6646018562
242702.8413687135
182329.3156317621
129527.0081699746
97555.66961301026
75355.97670933833
60710.08735488954
50781.98483795559
44257.15218846991
39983.11875298423
37240.84553027674
35550.6103448406
34584.47945683097
34511.91430186396
35171.5329398833
35059.90227953031
35166.90705595402
34936.89335296678
34927.95681259246
34919.12007996625
36310.46807817636
39083.11101166268
42178.8804371908
93455.61772962887
81262.94760751359
44345.11206218683
226436.0968362597
644073.1362741125
554213.6458687413
132489.2362330993
63713.55407230142
32698.00913009233
11343634.49163015
3956491.832343802
2514146.411522784
1740502.788043611
1427446.258932562
1261876.919578053
1040082.168919104
934046.7094246803
761396.4109273448
670731.6530179373
536304.4064913529
456610.9818795513
355998.8944422276
292839.139697561
225192.2980302335
179780.1571400381
137741.5097427882
110493.1875426808
87837.27921692941
70725.10257380489
56891.60706829274
46309.85711185738
38078.25908324672
31857.50972883463
29467.25820928138
28064.68477964883
26978.8110509581
25605.79640486014
23515.2463697307
22529.48039472552
21834.75395744907
21312.23623198049
21168.56420585001
20623.63531538181
20416.46775569725
20237.08259781
20000.49956615843
20087.75350309021
20262.96959169242
20070.1195564689
21099.60405332769
19951.28972915236
23443.11667346568
12147284.38720639
4023076.838968533
2664671.739413221
2178905.712805938
1793939.233125431
1697112.693076504
1395084.418546366
1334629.156040599
1047473.239371093
975344.8512175124
797748.5786511158
757434.3009202703
647714.0887623712
569621.6883227701
419377.9888728535
329893.2168148916
232111.4839689476
174582.9176447519
126715.7180637025
96438.91948360555
74611.33990402904
60120.63140818047
50489.09835074274
44114.82710759241
39900.9841068414
37206.83574872883
35524.36264450854
34552.55895393976
34445.28266726707
35163.01971062493
35123.46988028952
35003.41472611822
35020.90251432301
34864.91080518456
34733.20043631223
34775.98005466728
35498.68157842496
36891.66456787672
38378.85592146457
106986.0725053638
64730.31030610576
39252.02444191927
45010.44949326988
235252.2749364362
451798.7538061395
595940.4647558975
270160.9515888944
77671.92699175311
61668.32024179339
45979.56606745105
11259779.35812155
4080013.469251636
2453771.174061387
1933833.133441828
1421000.905923745
1226234.406564094
1019394.82727964
911211.0006341874
746682.9092174084
658427.5704000862
527904.2973625229
452341.355040055
353385.0394820443
290613.8886813184
224389.9257551566
179292.9741163334
137862.3520406233
110638.1729531893
88045.51651612415
70914.84109695848
57070.90404559352
46483.40840116858
38157.79828724211
31769.24885207112
27069.71038106295
25401.46393274982
24779.27220205197
24287.81032497903
22601.8923304136
21453.22156323506
21245.15720509664
20647.4349917057
20034.74007913417
19877.74155548033
19806.35755644345
19870.86498996277
19709.20075439002