/*--------------------------------*- C++ -*----------------------------------*\
| =========                 |                                                 |
| \\      /  F ield         | OpenFOAM: The Open Source CFD Toolbox           |
|  \\    /   O peration     | Version:  v1912                                 |
|   \\  /    A nd           | Website:  www.openfoam.com                      |
|    \\/     M anipulation  |                                                 |
\*---------------------------------------------------------------------------*/
FoamFile
{
    version     2.0;
    format      ascii;
    class       volScalarField;
    location    "6000";
    object      p;
}
// * * * * * * * * * * * * * * * * * * * * * * * * * * * * * * * * * * * * * //

dimensions      [1 -1 -2 0 0 0 0];


internalField   nonuniform List<scalar> 
18230
(
25214.43800715184
13194.57172382131
27661.4532651128
25279.58528938646
4780.905583021155
13415.68606165071
19263.22997281159
27735.98329281953
25260.08810028097
16717.64739795243
5089.189202798652
13482.1971533458
8581.029311219711
19282.18204235503
27706.17609730208
25270.41414083874
21846.58481283588
16950.80395693106
5312.558447136611
13548.94176364253
13824.50762899092
8855.608267814616
19327.16998728847
27611.86646319376
25247.24898006185
22473.34816426086
21918.0158462736
16993.12110229662
5540.07124650333
13697.78099720143
30030.33556464998
14242.45383014161
8921.098213792084
19443.03779269717
27631.60578261315
25237.05229333398
22978.38010780956
22525.20837097854
21875.86949015173
17151.63874995441
5805.212590363041
13901.12508532841
41158.69204288214
30106.50327412539
14434.37969202435
9061.141012557595
19418.82475281479
27604.3038654481
25241.17912613457
23634.37123465154
23035.57468227804
22480.25545356577
21916.39150169219
17316.17168263391
6115.203699310318
14073.94544626627
42492.55951617254
41225.27482302627
30267.89947233436
14660.63974545448
9214.700805781304
19508.65618898597
27588.76876897509
25274.42009834485
24384.3299819421
23700.37261629786
22983.33316547022
22501.94451660206
21922.75990632947
17495.22384855489
6459.907107084436
14269.47273907075
43392.23983238559
42498.43055526398
41165.19907339144
30488.71473264792
14969.27272873787
9403.031711150747
19580.53422430956
27573.39638220521
25309.33728993856
25237.73455878797
24451.88178078975
23638.43822104562
23014.577611486
22502.06177056063
21949.19188939175
17735.67179393187
6852.51237444389
14415.75454210793
43542.11088419433
43407.62316251425
42506.56865480887
41226.64290413586
30576.32827342679
15299.51126761384
9591.20885166148
19656.14269528693
27553.86513264017
25376.60735126927
26268.19364771862
25322.4945391465
24391.01359392568
23665.48528728491
23008.2230059432
22518.2038374186
21964.55021639061
17976.06365489344
7296.600694630599
14566.1816206998
43449.83483118992
43552.15297624854
43380.27624630395
42508.20122174374
41198.09619907504
30865.59542687751
15756.83869019774
9799.96092815094
19756.68073386635
27557.72566944749
25400.60050518317
27394.6135494815
26359.24239577321
25239.23651099738
24415.17285872994
23668.03613082546
23023.54509102257
22529.97885114986
21997.81830905514
18245.75020964807
7802.577612066521
14746.32920501433
43261.66600237002
43481.32633380861
43535.96936595095
43395.9933722029
42516.7858609489
41247.8216423547
30989.21664508147
16223.06362002196
10023.76814131962
19906.93873478866
27463.66188331621
25445.8684221548
29295.78714593413
27499.43087070361
26265.62598669939
25271.94888914766
24417.08349858466
23682.62990066748
23035.36524579562
22546.3350970484
22026.08899379589
18527.62672755236
8364.749397311634
14979.11205604046
42966.54371333432
43288.57079150153
43445.67204794042
43549.88172186
43384.00956932803
42527.39966836957
41250.17337075708
31269.91934832131
16718.07564530454
10243.42038655175
20068.04224507423
27429.67355397355
25491.2232411685
33953.85229730463
29401.82673184449
27384.51032796373
26298.33540475702
25270.63151460229
24433.45076153555
23698.42203583857
23051.34772853991
22564.17638989717
22065.10727915583
18852.46381593666
8992.542930476306
15258.92558452509
42800.81038094147
42987.41092779801
43256.82589885874
43456.44165244519
43535.60933236199
43397.38333375264
42534.76732413315
41313.49356235038
31564.89694750345
17342.35705988635
10440.06686336281
20303.13763745569
27450.3021477475
25600.00563723161
40776.87576326962
33979.54826832017
29298.74463620891
27425.4564859155
26295.15658193945
25285.21110481877
24442.04006321167
23714.51867910734
23071.61256323927
22588.45014543848
22103.41285556218
19186.1945501952
9695.920886618811
15552.41450233086
42502.08498180476
42812.09492024242
42963.06964312708
43266.0257174845
43448.59482223447
43551.10938299309
43391.07275914266
42550.25433339423
41296.430980278
31935.58488055567
17992.0168889282
10461.57109808133
20637.75013330131
27527.4818083282
25805.0577341603
50270.39765781647
40810.77118849532
33946.63055587997
29358.13839933679
27420.92773008253
26307.16412760391
25301.81995326211
24464.31563785355
23736.7791936329
23093.93094148428
22615.06041675391
22150.0739179712
19523.79284571364
10456.42429762629
15842.46344019897
42036.96244996153
42513.47021424719
42813.52160288513
42971.54900633041
43259.57610329471
43457.91583790584
43532.77211199448
43399.73497162539
42567.8103628735
41388.73667361171
32261.28335913048
18719.18253954561
10533.16957889068
21133.10995152437
27682.45098873532
26235.54951666538
55712.90717705634
50269.56278087357
40796.62124987631
33980.67410622797
29315.39247735731
27437.38353375452
26322.09751764435
25317.55251039588
24482.68684076645
23760.57572683231
23122.43798521534
22648.29826065717
22199.43129001745
19882.4078971471
11280.04103134751
16202.49894911765
41245.6972485793
42038.26494073901
42497.95280656792
42801.4931539521
42969.38922990602
43267.53769102596
43444.85282045724
43553.42732248727
43400.06420156803
42583.1174314104
41384.00446850625
32743.11588000999
19491.41218316093
10626.86111652922
21794.66854857559
27811.44499948551
26906.51959710691
58073.44741459252
55727.18287925494
50274.34959343417
40783.23842351716
34008.2445420726
29360.15633975721
27442.72536782824
26333.35615927969
25338.20624349875
24510.57854265786
23792.34144005828
23157.01700442304
22686.96250774543
22260.43992165379
20229.5247686444
12130.42458546727
16648.00034967086
40317.42633146724
41253.50482999138
42033.33419767218
42501.65158839994
42815.89305871116
42974.88342747615
43254.53888663053
43467.30326905724
43536.2775336809
43407.80663314398
42611.78428357274
41478.70884855988
33171.86902820272
20291.31033925048
10752.50274786733
22639.43000425603
27877.95959803475
27724.2861131586
59808.41280352844
58065.37372287249
55712.03412171351
50286.19317458732
40814.73965339178
33999.89294445378
29352.85579441198
27462.2715205847
26353.28717077856
25363.51961802954
24538.68049204391
23828.24042313986
23197.17701358308
22731.51617132257
22323.9621933113
20576.5750014734
12997.50877261666
17194.8424252447
41430.74624755622
40317.90012979534
41238.46038433794
42035.88449506191
42497.41800251414
42805.9122337586
42973.53170921209
43273.41846264774
43445.45022582471
43549.95672537579
43408.87246706021
42632.45259249207
41495.06990977292
33741.47864361535
21163.15884755841
10966.85322059227
23687.27409130038
28156.63450736069
28699.14343659377
61450.50176080941
59799.95409937917
58074.56208099878
55711.56434342408
50281.06871714176
40794.04045099474
34002.13754721898
29390.99058491263
27475.52690972717
26371.85315595781
25391.9745856575
24576.11072918965
23872.4620339533
23245.54411678075
22784.92442357205
22399.94874095684
20908.54263888445
13860.11338519462
17805.6531342228
43096.43785167029
41469.61411517672
40318.20070359077
41240.77251899788
42032.46650699631
42500.48562667066
42813.83377245711
42982.46496462459
43254.16634827853
43477.48189771825
43538.1621578123
43429.76538414211
42674.50478179368
41566.95351213923
34304.41671756671
22078.78023410057
11338.24990279342
24994.0182829295
28621.98215954558
29895.19835525153
62978.32173616214
61439.85715321144
59809.4768453349
58072.26242215574
55703.50365559767
50291.67433497601
40869.39724089177
34028.81910830344
29385.88684624579
27500.14501072104
26398.40047832007
25429.07824163663
24619.94372006869
23923.32258783878
23304.01768348321
22846.62239460405
22477.36698025397
21222.7112085889
14729.36503296669
18465.30372192233
44163.52912345021
43112.78396937493
41425.67341417628
40318.47103470691
41247.34116357064
42033.64903477581
42497.51898404146
42807.78307979392
42974.86841185791
43281.9202214241
43442.97486206816
43537.4539125683
43403.87623102057
42700.45651974306
41645.89728717494
34918.53441465313
22988.38111978595
11905.65691904346
26442.08693864255
29268.77839082342
31495.34471296978
64348.97675921403
62960.82183905639
61451.23805240407
59811.31618328609
58076.43485061567
55717.33681626034
50283.76030757008
40831.39141845246
34059.99734080597
29436.84604560544
27523.58170610001
26427.32406155688
25471.36999566773
24670.28547498472
23985.37299806554
23372.98339734642
22920.30056733923
22569.80182651707
21521.64041432611
15585.56750698056
19226.88681973007
42498.97618922118
44173.33220532036
43094.92027388998
41454.51407184048
40318.94585015305
41240.89047348133
42031.59506239458
42505.07351199634
42812.12233626535
42985.8693099746
43247.76381406801
43461.42628447861
43536.96225013669
43427.0848495833
42740.07048283828
41765.98304804363
35547.35513616577
23944.03448476483
12614.27273576636
27984.66937729423
30172.97037856138
33426.43671176536
65736.50514256296
64341.999230183
62979.9878407887
61444.77724421534
59804.45203937496
58068.16622191178
55711.89548182446
50307.69975539419
40872.01725057801
34064.116474314
29444.21621390626
27554.70869509674
26463.13137252015
25522.31836995035
24731.67324775759
24056.91979943449
23459.00938799094
23006.17831366892
22668.38925621588
21801.52035193434
16418.56363934122
20104.85433096625
40501.97098374261
42503.91146366096
44161.45085522789
43098.36155728153
41424.92484031204
40319.35268808962
41237.18560585535
42035.99182645658
42492.1617758993
42822.48626982056
42970.58627642894
43261.30362664061
43423.71161058655
43536.02982542277
43433.89850482965
42789.99019216141
41849.97128683271
36238.91247315354
24986.45230819455
13442.15349172295
29391.4989385988
31386.36154889997
35488.3885364201
66904.60907107408
65718.95548312632
64347.46522845932
62976.38404988184
61449.45025803249
59810.16845212717
58067.89091508959
55710.70344262736
50286.06138935652
40888.9669042117
34102.54994108504
29501.81417825151
27589.38910134128
26505.58927855832
25581.37583119145
24802.41830532583
24144.44515058243
23561.48935003946
23110.25657596226
22782.87448302147
22063.03123089464
17211.70831224529
21087.46986417441
39522.17951739216
40510.68859842377
42517.91026614215
44162.36475005382
43104.08914721379
41455.77536133246
40319.98656903315
41246.89102584726
42028.00120979988
42518.02708292047
42807.40447676622
42956.9147391097
43227.20621634601
43432.67225547336
43535.17096919552
43445.14109710406
42842.95902597115
41988.95423073257
36890.96552886498
26109.26480586757
14367.94753176822
30886.35749279687
32864.60643080704
37461.50791008415
68126.1109975357
66888.30249000704
65736.92062720937
64345.45650722794
62979.6474518641
61448.37257910406
59806.47683900417
58070.96776524231
55712.37521336136
50322.35072234386
40910.49012615142
34136.14310291094
29522.80409610863
27635.20188306168
26557.14200376003
25648.37974609125
24888.91662652753
24247.42396559454
23688.48669841227
23234.84003035712
22909.45532700844
22308.07300015885
17952.85693848916
22243.51140192191
41864.89927238086
39509.01554121879
40494.08254095664
42494.32951829828
44161.42296251392
43101.12365957013
41435.99253816474
40320.65740463851
41232.00204962023
42042.88288519644
42487.16826198271
42808.69576322458
42954.44608213678
43225.95298313841
43423.96430464594
43533.89998156758
43455.25907391196
42907.45516307243
42097.9678765018
37549.25720595031
27310.34079859269
15346.59922569285
32578.80783443746
34521.56816946377
39284.54506429473
69157.04874309477
68121.36995956792
66909.36362296017
65735.91595402209
64347.31376642746
62976.11048696462
61450.13011881449
59806.20004230321
58073.3528689525
55706.99250961482
50317.95757233593
40940.38314745838
34179.66347487901
29594.37292501624
27686.63566984798
26616.34886477451
25729.33877339007
24989.84275135886
24373.41949347953
23840.41744440644
23386.46141974792
23057.08675564836
22540.89322622171
18622.4457146334
23605.33000086176
45121.67507877596
41943.26525545806
39526.20756790969
40500.07076875294
42495.02877056933
44160.85492125385
43099.21220577895
41460.91071103066
40321.58857878076
41247.51591785594
42025.73013321887
42495.71516655502
42779.01560880894
42949.42527796127
43214.28268341615
43418.71720231137
43531.48531180237
43467.4835053025
42971.68119417577
42242.05122410618
38176.95599460934
28534.60308734972
16361.43096569196
34548.47810317911
36329.86855224214
40878.91567048444
70200.71335451883
69156.48845874069
68126.49085304321
66900.90560159327
65734.78360284907
64346.54011663295
62973.9811213971
61445.3782432033
59805.45743627341
58067.14113279209
55712.72938730354
50337.74515966829
40981.81505304177
34223.76888387683
29635.31963517881
27749.74860054022
26686.63921983008
25824.0567880932
25113.31921343049
24522.80440359858
24019.66871453088
23572.32319369367
23228.25223672978
22770.67511766849
19218.78019985704
25273.44039849715
46991.87247869388
45155.15182935453
41864.64137088793
39505.6806692853
40503.91066276949
42489.80187916048
44160.00617932269
43105.73208126351
41435.09366910174
40322.25779257059
41225.00186425354
42022.9246583926
42477.26493753964
42780.07495271107
42945.6185302151
43204.22865219915
43410.13373468947
43527.4071943833
43478.56693586884
43048.65867377476
42370.21657867525
38764.66618095183
29726.40853450954
17393.85549886173
36606.39265160065
38191.24853212427
42226.16240187568
71222.42903944764
70201.62502014823
69155.17257736616
68124.48436204252
66903.26218966031
65730.34494895359
64346.02459495903
62976.76028051904
61446.03127217462
59804.71984223826
58071.08598880115
55708.27172371263
50347.79602173065
41032.15107749963
34292.27655931163
29728.65589877405
27823.78279679117
26768.22206144907
25937.59381955008
25258.44375689457
24698.75219998321
24232.208343753
23796.27696697195
23441.05332544387
23003.75634174509
19733.89885145599
27245.20851038329
37258.93332611033
47009.69150591956
45118.67130787566
41887.0534357806
39532.09566813498
40495.99480997521
42493.51133238919
44160.01036274317
43106.43220198214
41445.14283731693
40324.1232671974
41225.40325360047
42014.3546857128
42475.52037237261
42772.07641141531
42939.88458235254
43191.25931059655
43399.78589046603
43521.05720386749
43490.27697943409
43120.14931097155
42508.76353903728
39298.82439036416
30859.33182784183
18470.5558377944
38992.53127532827
40007.30371535585
43397.41677017633
72121.93151104599
71221.46831977261
70200.3513255248
69160.00750315221
68124.14699005231
66905.63412760195
65734.8136241621
64345.2837376679
62973.79708383117
61449.05770157016
59802.35127281173
58068.70982022866
55715.85939237262
50363.40503119523
41080.70285274469
34356.31272872997
29791.97748097083
27910.52621230726
26868.12275507054
26071.00383768831
25428.73921716997
24905.54485610026
24479.65090952791
24064.01159563078
23691.69983958598
23252.14018882486
20252.9992745262
29353.05831918862
27207.65901899894
37296.31399985673
46988.78773109253
45127.6020407049
41882.30493993154
39503.83513644644
40498.50427757643
42484.6731864068
44148.13699466775
43109.1961309322
41445.32381329426
40325.30804173675
41218.30773976212
42009.63706493581
42467.17663348089
42766.37366141962
42933.61858244157
43175.43619449841
43387.69951909712
43510.72274616755
43500.25537988539
43199.38921291192
42642.60432355829
39776.95747610519
31913.36945800026
19603.20012591662
41626.0453495711
41328.60314861445
43830.00135911501
73026.36859945058
72121.23383906278
71218.37391288264
70194.75780177137
69154.79761068679
68125.65162329648
66900.6220830004
65732.19995535954
64345.30616490055
62970.95365248098
61444.35022721387
59802.87481092667
58065.26510314088
55711.85337185218
50385.31757048765
41147.98106562305
34440.69438809502
29923.09876037631
28016.42068253518
26987.24234332577
26226.9385385088
25626.97989287279
25146.50490160922
24761.46274208985
24380.79225729738
23981.16959043466
23528.16538499076
20753.46496101369
31358.76743673936
24119.84405502523
27280.86744083714
37251.96810231046
46983.55443840494
45117.13498295228
41871.77054209857
39533.43497822067
40493.80349060897
42489.66997696528
44156.81670909157
43112.52515249386
41447.45892926422
40327.66426925158
41212.88715109922
42002.99904225259
42459.49036767083
42758.34149663314
42925.33750698329
43157.98256948367
43371.52960990341
43496.97551209162
43508.76492382908
43268.39019708029
42774.41925365274
40202.47604160442
32861.87873311628
20909.81200055619
44570.41890655108
42415.00394316005
42652.08122997646
73863.21233383217
73025.96209643196
72120.96167271763
71224.21136238705
70200.48042339597
69149.0378498857
68121.10273507642
66900.61697512261
65731.27828180065
64342.9190532703
62971.43792866176
61443.16094870508
59802.5406667105
58064.95961193074
55712.64833111241
50413.17131457209
41220.64206897814
34541.74907129924
30028.94129489376
28147.08842911145
27130.03672587879
26408.96088836788
25856.5368887086
25420.9573892714
25082.91148244444
24739.47139979597
24313.21612586152
23854.21615048387
21260.66634425708
31536.45848103008
25719.11950831278
24120.72508707068
27184.45894686797
37253.95116726364
46990.18427415648
45129.86742002351
41890.91911575149
39531.92779646752
40490.07814720328
42479.76636826814
44154.95216674745
43115.86850632574
41453.10254357675
40330.04469898419
41204.8072031981
41994.52265541197
42449.75093692323
42748.39910396512
42916.14812206054
43135.68329507899
43352.8020870878
43476.27929241593
43514.85300196039
43332.7278202145
42899.81395497655
40578.86054172771
33689.14200208074
22563.94121482103
44498.41868122789
41519.8358344382
43695.59021712562
39383.93597593051
74682.22680314114
73862.54514092764
73027.28049114293
72120.53264869741
71218.51645219055
70197.59086486651
69154.85095205781
68123.21368035211
66899.24787627213
65729.88775782564
64341.45833238954
62969.34643303804
61440.16539588603
59799.52433541039
58063.57314723514
55712.3264663755
50435.86655641644
41318.06366891415
34661.84489519979
30198.93046564786
28298.03283033497
27302.59200785351
26620.32579195129
26117.84012841501
25735.91186955298
25436.87126945845
25131.69662155522
24696.62758350306
24209.57659629638
21416.29152627957
25269.86596476342
28125.58090514857
25751.88305195463
24120.81637591723
27202.09163257955
37249.47831158208
46971.35653211336
45135.54756798301
41884.80668013969
39506.27507899699
40488.8020412333
42476.29705252511
44152.84822553182
43121.72032281467
41457.35543279631
40332.8998279126
41195.37048663158
41984.65879723666
42437.29342797725
42737.27141957209
42903.86791196023
43111.62393521361
43327.0836004272
43452.77205857683
43512.38479684752
43381.15684912758
43016.57412538811
40902.22910919639
34380.8206782747
24200.83697422446
42891.41453504658
41858.79228807743
43362.09536362029
40756.41493635856
75454.09639904532
74681.43476550009
73862.23354994865
73024.53982751467
72121.11405820536
71222.16185706455
70197.18017004085
69149.96489962612
68118.7599178371
66896.33816236592
65727.85995313122
64339.71910754377
62967.87195261568
61439.28529686869
59798.00322227582
58060.08689284224
55713.4459674566
50473.45300088386
41432.12675960194
34804.46620138892
30364.81291500292
28486.36186966179
27505.42694392423
26867.53082416664
26417.93370814958
26082.9621152633
25828.3980306087
25556.29737799508
25110.69520792496
24580.05572722826
22874.72043433169
24490.8955738408
30124.09590942597
28142.4356467517
25716.65268566062
24121.48895191453
27227.56605914914
37238.28277026012
46988.2197056728
45131.91295834172
41884.12055450754
39542.20261646456
40486.43455672174
42469.80661751711
44150.00810226044
43127.34855790604
41463.99613980196
40336.56227510999
41184.56185854091
41972.3259467228
42423.29146615971
42722.12827094843
42890.12721013955
43081.77116391796
43294.27591664115
43424.26406417409
43497.75356844821
43412.61863237758
43115.73661077562
41175.75732384504
34989.3673758702
25995.07618419482
41779.10373845119
36468.41834946768
43055.64651611395
44927.71095009699
43014.85890432764
34529.48533842871
43119.39242957046
76200.05590067137
75455.24302579668
74681.26898579669
73861.7269689557
73022.66834638697
72118.87010343169
71218.51822351055
70195.89765080618
69152.6455091158
68120.47617277107
66898.01440818679
65726.40048513166
64337.15493126075
62966.16332085691
61435.80069594976
59795.35432790002
58058.39061209426
55712.81905747261
50513.53057780978
41558.43158607385
34972.29863437092
30594.4823005302
28701.52936032165
27753.5416335965
27156.74953952828
26756.10201541548
26477.4517220849
26257.62830837429
26004.63466676807
25562.67847427534
25090.3065829092
23682.23126531486
23806.32082351856
31422.91014697345
30135.62868977155
28113.46657262841
25725.42694220547
24122.00073731392
27190.14303087653
37243.65729147434
46969.90761052383
45144.43115685328
41896.9723918071
39541.87863370526
40482.1336531864
42462.93080504198
44147.35240920068
43133.6251880148
41477.78221419598
40341.5918890495
41170.07930408965
41958.03725338231
42404.83823889083
42705.14699867828
42872.01331325708
43049.61806601938
43249.82008094138
43389.6652269988
43472.22421358857
43423.96278265892
43188.826608889
41369.63228517649
35170.03916671429
24699.00403102309
32209.60429788339
41861.81065135504
38022.53326496851
44420.24172157287
45257.74852731024
44482.8311060651
35886.47830176069
43882.52225215185
76906.56947373896
76197.56661533465
75453.2852398473
74677.03880383403
73861.0904224113
73023.63671337714
72116.95331823244
71217.83930873229
70194.33939171991
69149.19833297335
68115.04059863505
66893.03580744111
65724.34095965645
64335.49174461768
62962.96344488334
61434.7359650847
59792.70385790931
58053.15087924761
55712.5981082143
50561.12642897876
41703.70230776853
35178.34465724209
30841.18615507573
28971.16100465123
28049.82989767743
27496.14854492797
27152.40940947738
26913.35667113144
26708.94410445178
26417.97588995917
25492.37597333078
26284.59358672397
25150.13890531889
23463.19418324214
23712.59826652782
32676.99170814604
31421.13504068936
30122.08803239257
28136.73701602246
25733.3614859878
24122.59190526278
27197.36167266459
37232.99677003629
46983.83663195717
45141.58919249482
41902.00584412764
39530.47304991337
40476.42265548417
42455.22970981734
44142.72801419993
43143.21791486922
41479.8176451589
40347.22958607769
41155.50486166099
41938.86498494002
42383.94953947031
42682.34514365838
42850.78568721731
43011.72797866977
43195.27370854116
43342.79048222081
43442.74618339497
43435.6765870521
43230.54495548597
41634.66071168589
37648.60863247231
28015.6552036529
33686.50379717186
45074.4999794727
40797.09729334045
34216.00295107622
45529.94442045956
45472.27831191703
45916.34515774975
44187.87007662784
28679.32525093568
42159.14708888733
77619.27721714746
76903.25830533948
76200.57696299406
75452.62318831707
74681.8233448487
73862.34596256618
73023.75343925504
72117.19253682283
71216.38823830785
70193.12519256395
69149.49024447612
68116.83434364545
66892.12197914279
65720.96467351451
64331.54690323572
62958.42174109627
61429.12884945074
59789.55588383799
58050.02238664644
55711.26208688723
50616.90747994783
41886.21015891287
35416.15496281578
31158.0956704911
29295.35423172661
28406.74947086075
27905.92102581795
27595.38919028467
27394.69774693087
27128.69083155915
26988.13373636839
26013.43377689148
26785.9668020101
25578.29392889346
24124.12363402033
23750.66495480801
34003.27406787988
32679.0713144754
31423.49118909362
30125.55170599739
28121.10105199573
25735.43807841236
24123.05876931058
27191.79120648489
37243.50501235681
46967.75754545203
45149.36285184232
41949.29078058209
39554.23394050862
40471.5684881776
42443.89460412169
44140.27002480637
43152.90412465428
41493.9873440509
40353.50451812075
41135.96054981965
41917.42001608538
42356.62043451353
42655.82960399323
42823.15867038412
42970.42574723671
43130.03839456577
43278.38194107201
43393.49120199276
43436.73278032137
43250.53998164187
40967.10350830824
42550.20759859263
36662.4468517725
33382.96092427749
27212.61835289319
44371.12079771369
42853.19144475106
34348.99468846979
44191.97662351267
44616.91823349588
44360.50345479693
44320.12358709267
34790.47890305761
42060.41450500979
78271.89199641935
77617.88832017097
76905.59856905779
76198.28763915175
75450.83665375356
74676.61314431687
73858.31632682632
73021.01231627479
72115.5840608111
71214.52422909839
70190.48692962214
69143.56590036923
68111.75382864063
66888.71078351933
65717.28305284801
64327.55182899523
62955.05485409308
61425.84768170962
59785.01203606953
58044.89315608225
55710.74684794173
50679.38743381183
42081.94525963909
35701.36997811983
31535.59143602956
29697.08298426531
28841.18012957884
28373.80738635765
28123.71615137389
27856.24858804089
27724.28994878375
27337.53143208596
25954.07891488581
26701.54603438406
27293.49529231951
25747.88278778018
23840.84124480442
25531.35807582791
23688.4290561963
35375.98674823761
34001.2279513195
32676.75410355614
31422.82875194524
30124.34380197091
28131.61087338519
25729.85089284123
24124.345221408
27177.49693523122
37221.92350095285
46977.88855846781
45155.93503660425
41911.62926976624
39522.62855224599
40463.53912108904
42431.94928496135
44113.35403002773
43165.72928644124
41505.27720972927
40362.04073724335
41114.84255704591
41888.65829199229
42324.76011593599
42621.21233277687
42789.23697843564
42922.39819042985
43059.43342946603
43193.32983520485
43332.64608330615
43429.58456638765
43384.98839222926
41923.13250149943
42637.34266938658
37487.68339084522
35583.04362903882
29114.31403217854
44499.15185763296
40517.16153559787
30691.55119879491
44246.53752837397
44455.34287457869
44985.91126828022
44369.31306181219
43596.41618764013
30551.62442851052
78928.46960231538
78267.64692834709
77617.76529655629
76905.12127839812
76198.17233187705
75453.93528362198
74679.72255486416
73860.01744538607
73020.4101988888
72115.66705774517
71213.04852901888
70190.85568381281
69143.77240058214
68108.98775484787
66885.40342126047
65713.03441684454
64322.85217268935
62949.0785578244
61419.40402635995
59779.74398254347
58038.82981291808
55712.32282531109
50756.73731526546
42325.92549986903
36032.17566327195
31965.10501225902
30179.90223253074
29355.27293652839
28958.33844946741
28667.4922542794
27886.88322949314
28528.07538199587
28028.43882470794
27956.63259709111
26389.1265913109
27089.1441811101
27644.57364113896
26213.1591858777
24521.92815547314
26071.14503013402
23673.65621487893
36745.6554736528
35373.74551894386
34003.9782693011
32677.1517589351
31423.26688111363
30128.97301685629
28131.77348848986
25744.96942036027
24125.00458903441
27174.70059629984
37215.76886123248
46957.48196413441
45164.07158167993
41967.11460065727
39577.3681518412
40456.14330630789
42415.67441488719
44127.75943980918
43180.58032234193
41523.83988310334
40371.36376930139
41088.52011564592
41855.41000263782
42283.88558939769
42579.15702322873
42744.25234444867
42869.35273737318
42977.85221263461
43108.83463645344
43272.12452238007
43410.59753802335
43318.36213378301
43384.63054510854
42070.38571231122
43088.13196084738
40062.76725291414
36099.07879619809
34557.49010157795
44565.73081023655
42686.65259220525
30420.21431816746
44098.10226668163
43622.31779935199
44165.7484432195
44346.87663668826
43623.19745575928
29169.46077490618
79543.47643348231
78927.79017318969
78271.45912943811
77618.01453598167
76905.65814808528
76194.92837836863
75450.43789307786
74677.24660681751
73856.43711107402
73018.30885305164
72112.16827504477
71210.47810610589
70186.04924867502
69139.11659578737
68105.21986319784
66881.22884031938
65708.24404603538
64317.14249467081
62943.40546998817
61412.94518806959
59773.59067670155
58030.50427510504
55710.54863980492
50841.99118129502
42600.72694062654
36420.0873780598
32483.87945179834
30746.51808930749
30037.35207805083
29404.9165163017
29264.19842847766
28328.2380471018
28746.28453310462
28384.99224186785
28011.65877895799
26958.11001343735
27624.12561883853
27794.32123479447
26576.01359951506
25922.78132348746
24213.00580641261
26554.13794146749
24739.9250812957
38258.57782547946
36750.52909377872
35381.22531537253
33998.48013758751
32677.05694360627
31421.83752464733
30121.48138289994
28138.73663847692
25728.96956165555
24126.81804486194
27153.4705734032
37205.34258603861
46968.62437545459
45175.70110944739
41940.21936795825
39540.44320491549
40446.72873563443
42397.20805436021
44100.89377274009
43197.18638605951
41541.51260562741
40382.45959554632
41059.98631845447
41812.86488469525
42234.64525618654
42524.69863053202
42688.47926705852
42801.88108121808
42899.2022586136
43037.69885378034
43094.12824135791
43369.83353513374
43292.14991224044
43392.11099334656
42822.35596326611
43199.84668517551
40526.90791140506
38604.77190102232
36877.54102953994
44362.53923898876
39556.33211420266
33702.12676981396
30109.57874965704
44770.58643670943
44367.543759557
44501.67509809709
44232.75301755657
44147.3224966192
43833.75762849102
38225.99724850326
80170.33354891896
79542.08364987794
78927.47406766872
78273.06838050971
77617.36142908985
76903.87732410418
76197.42032187038
75449.6285024801
74676.95997360394
73856.60786204707
73017.44205524426
72110.1095695533
71207.98340315286
70183.15365682947
69136.17960287728
68100.37330615218
66876.13598950174
65701.64572886411
64310.54235311996
62935.77893309129
61404.63109471303
59766.10181423665
58021.79831046657
55710.78664447185
50937.68607517074
42919.50271097569
36888.49954900113
33067.83083764421
31478.14790536029
30512.95330475471
30145.76996246196
29754.83549325164
29474.32942197692
28916.61240058631
28407.99846100525
27334.70912321663
27912.948577616
28247.89444661533
27176.0327333555
26488.15044253701