/*--------------------------------*- C++ -*----------------------------------*\
| =========                 |                                                 |
| \\      /  F ield         | OpenFOAM: The Open Source CFD Toolbox           |
|  \\    /   O peration     | Version:  v1912                                 |
|   \\  /    A nd           | Website:  www.openfoam.com                      |
|    \\/     M anipulation  |                                                 |
\*---------------------------------------------------------------------------*/
FoamFile
{
    version     2.0;
    format      ascii;
    class       volScalarField;
    location    "6000";
    object      rDeltaTau;
}
// * * * * * * * * * * * * * * * * * * * * * * * * * * * * * * * * * * * * * //

dimensions      [0 0 -1 0 0 0 0];


internalField   nonuniform List<scalar> 
18230
(
3471.090049232987
3379.990475483905
3530.606966484249
3403.02946003234
3313.716152435201
3313.716152435201
3510.984412219667
3461.379378906127
3336.303392188569
3248.741325916863
3248.741325916863
3248.741325916863
3442.141580607517
3442.141580607517
3393.509195006007
3270.885678616244
3185.040515604768
3185.040515604768
3185.040515604768
3185.040515604768
3374.648608438742
3374.648608438742
3374.648608438742
3326.969799025497
3206.750665310043
3122.588740788988
3122.588740788988
3122.588740788988
3122.588740788988
3122.588740788988
3308.47902788112
3308.47902788112
3308.47902788112
3308.47902788112
3261.73509708382
3143.873201284356
3061.361510577439
3061.361510577439
3061.361510577439
3061.361510577439
3061.361510577439
3061.361510577439
3243.606890079529
3243.606890079529
3243.606890079529
3243.606890079529
3243.606890079529
3197.779506944922
3082.228628710153
3001.334814291607
3001.334814291607
3001.334814291607
3001.334814291607
3001.334814291607
3001.334814291607
3001.334814291607
3180.006754979931
3180.006754979931
3180.006754979931
3180.006754979931
3180.006754979931
3180.006754979931
3135.077947985217
3021.792773245248
2942.485112050595
2942.485112050595
2942.485112050595
2942.485112050595
2942.485112050595
2942.485112050595
2942.485112050595
2942.485112050595
3177.021679220837
3117.653681352873
3117.653681352873
3117.653681352873
3117.653681352873
3117.653681352873
3117.653681352873
3073.605831358056
2962.541934554165
2953.791298532171
2884.789325539799
2884.789325539799
2884.789325539799
2884.789325539799
2884.789325539799
2884.789325539799
2884.789325539799
2884.789325539799
3240.562112805253
3114.727136491016
3056.523217012621
3056.523217012621
3056.523217012621
3056.523217012621
3056.523217012621
3056.523217012621
3013.339050351035
2904.452877013887
3012.867124502814
2895.873822090364
2828.224828960587
2828.224828960587
2828.224828960587
2828.224828960587
2828.224828960587
2828.224828960587
2828.224828960587
2828.224828960587
3235.758326321598
3177.021679220837
3053.654055383349
2996.591389228059
2996.591389228059
2996.591389228059
2996.591389228059
2996.591389228059
2996.591389228059
2954.253970932388
2847.50282060185
3073.124466992871
2953.791298532171
2839.091982441533
2772.769440157439
2772.769440157439
2772.769440157439
2772.769440157439
2772.769440157439
2772.769440157439
2772.769440157439
2772.769440157439
3172.312084629018
3172.312084629018
3114.727136491016
2993.77848566995
2937.834695321626
2937.834695321626
2937.834695321626
2937.834695321626
2937.834695321626
2937.834695321626
2896.327422482733
2791.669431962598
3134.586956332728
3012.867124502814
2895.873822090364
2783.423512197582
2718.401411919057
2718.401411919057
2718.401411919057
2718.401411919057
2718.401411919057
2718.401411919057
2718.401411919057
2718.401411919057
3173.975166882192
3110.109886891194
3110.109886891194
3053.654055383349
2935.076946735245
2880.230093452575
2880.230093452575
2880.230093452575
2880.230093452575
2880.230093452575
2880.230093452575
2839.536688708562
2736.930815649605
3197.278695459383
3073.124466992871
2953.791298532171
2839.091982441533
2728.846580585864
2665.099423450056
2665.099423450056
2665.099423450056
2665.099423450056
2665.099423450056
2665.099423450056
2665.099423450056
2665.099423450056
3165.997738684194
3111.740359688423
3049.127340089406
3049.127340089406
2993.77848566995
2877.526418367887
2823.754993580956
2823.754993580956
2823.754993580956
2823.754993580956
2823.754993580956
2823.754993580956
2783.859498733884
2683.265505538829
3261.224269368571
3134.586956332728
3012.867124502814
2895.873822090364
2783.423512197582
2675.339784888102
2612.842572009859
2612.842572009859
2612.842572009859
2612.842572009859
2612.842572009859
2612.842572009859
2612.842572009859
2612.842572009859
3103.91935165117
3103.91935165117
3050.725842831787
2989.340529499417
2989.340529499417
2935.076946735245
2821.104331733223
2768.38724860878
2768.38724860878
2768.38724860878
2768.38724860878
2768.38724860878
2768.38724860878
2729.274018366553
2630.652456410616
3247.288899485249
3197.278695459383
3073.124466992871
2953.791298532171
2839.091982441533
2728.846580585864
2622.882142047159
2561.610364715548
2561.610364715548
2561.610364715548
2561.610364715548
2561.610364715548
2561.610364715548
2561.610364715548
2561.610364715548
3143.605428184784
3043.058187893304
3043.058187893304
2990.907689050772
2930.726009313154
2930.726009313154
2877.526418367887
2765.788560522768
2714.105145694882
2714.105145694882
2714.105145694882
2714.105145694882
2714.105145694882
2714.105145694882
2675.758841535836
2579.071035696682
3312.234677474954
3183.616568122793
3134.586956332728
3012.867124502814
2895.873822090364
2783.423512197582
2675.339784888102
2571.453080438391
2511.382710505439
2511.382710505439
2511.382710505439
2511.382710505439
2511.382710505439
2511.382710505439
2511.382710505439
2511.382710505439
3127.644538456197
3081.966106063514
2983.390380287553
2983.390380287553
2932.262440245855
2873.260793444269
2873.260793444269
2821.104331733223
2711.557412277223
2660.88739774008
2660.88739774008
2660.88739774008
2660.88739774008
2660.88739774008
2660.88739774008
2623.292981897879
2528.501015388904
3378.479371024453
3247.288899485249
3121.192713845875
3073.124466992871
2953.791298532171
2839.091982441533
2728.846580585864
2622.882142047159
2521.032431802344
2462.139912260234
2462.139912260234
2462.139912260234
2462.139912260234
2462.139912260234
2462.139912260234
2462.139912260234
2462.139912260234
3202.831474410651
3066.318174957056
3021.535398101484
2924.89252969368
2924.89252969368
2874.76709828025
2816.922346513988
2816.922346513988
2765.788560522768
2658.389619879631
2608.713135039294
2608.713135039294
2608.713135039294
2608.713135039294
2608.713135039294
2608.713135039294
2571.855864605764
2478.922564106769
3392.945531832339
3312.234677474954
3183.616568122793
3059.992856711642
3012.867124502814
2895.873822090364
2783.423512197582
2675.339784888102
2571.453080438391
2471.600423335631
2413.862659078661
2413.862659078661
2413.862659078661
2413.862659078661
2413.862659078661
2413.862659078661
2413.862659078661
2413.862659078661
3266.888103898865
3140.030857265344
3006.194289173584
2962.289605981847
2867.541695778117
2867.541695778117
2818.399115961029
2761.688575013714
2761.688575013714
2711.557412277223
2606.264333215324
2557.561897097347
2557.561897097347
2557.561897097347
2557.561897097347
2557.561897097347
2557.561897097347
2521.427318240945
2430.316239320362
3326.41718807092
3326.41718807092
3247.288899485249
3121.192713845875
2999.99299677612
2953.791298532171
2839.091982441533
2728.846580585864
2622.882142047159
2521.032431802344
2423.137669936893
2366.53201870457
2366.53201870457
2366.53201870457
2366.53201870457
2366.53201870457
2366.53201870457
2366.53201870457
2366.53201870457
3285.188030488995
3202.831474410651
3078.461624769946
2947.249303111357
2904.205496060635
2811.315388017762
2811.315388017762
2763.136388197087
2707.537818640896
2707.537818640896
2658.389619879631
2555.161110995416
2507.413624605243
2507.413624605243
2507.413624605243
2507.413624605243
2507.413624605243
2507.413624605243
2471.987566902887
2382.662979725845
3261.193321638157
3261.193321638157
3261.193321638157
3183.616568122793
3059.992856711642
2941.16960468247
2895.873822090364
2783.423512197582
2675.339784888102
2571.453080438391
2471.600423335631
2375.625166604797
2320.12943010252
2320.12943010252
2320.12943010252
2320.12943010252
2320.12943010252
2320.12943010252
2320.12943010252
2320.12943010252
3294.842678600166
3220.772578910779
3140.030857265344
3018.099632127397
2889.460101089565
2847.260290255524
2756.191556880159
2756.191556880159
2708.957243330478
2654.4488418048
2654.4488418048
2606.264333215324
2505.059912740604
2458.248651573767
2458.248651573767
2458.248651573767
2458.248651573767
2458.248651573767
2458.248651573767
2423.517222453811
2335.944097770436
3275.654224271004
3197.248354547213
3197.248354547213
3197.248354547213
3121.192713845875
2999.99299677612
2883.499612433794
2839.091982441533
2728.846580585864
2622.882142047159
2521.032431802344
2423.137669936893
2329.044280985096
2274.636696178941
2274.636696178941
2274.636696178941
2274.636696178941
2274.636696178941
2274.636696178941
2274.636696178941
2274.636696178941
3230.237920196241
3230.237920196241
3157.620175402725
3078.461624769946
2958.921207968036
2832.804020676044
2791.431657113259
2702.148585176626
2702.148585176626
2655.840434637723
2602.400825298823
2602.400825298823
2555.161110995416
2455.94109092216
2410.04769762134
2410.04769762134
2410.04769762134
2410.04769762134
2410.04769762134
2410.04769762134
2375.997276915501
2290.141272323956
3341.167308756425
3211.425710069612
3134.557210340405
3134.557210340405
3134.557210340405
3059.992856711642
2941.16960468247
2826.960404346857
2783.423512197582
2675.339784888102
2571.453080438391
2471.600423335631
2375.625166604797
2283.376746063819
2230.035976646021
2230.035976646021
2230.035976646021
2230.035976646021
2230.035976646021
2230.035976646021
2230.035976646021
2230.035976646021
3166.899921761021
3166.899921761021
3166.899921761021
3095.706054316397
3018.099632127397
2900.903145066703
2777.258843800043
2736.697703052215
2649.165279584927
2649.165279584927
2603.765131997768
2551.373358136101
2551.373358136101
2505.059912740604
2407.785383257019
2362.791860413079
2362.791860413079
2362.791860413079
2362.791860413079
2362.791860413079
2362.791860413079
2329.409095015197
2245.236541494075
3348.675774153151
3275.654224271004
3148.456578499619
3073.095304255299
3073.095304255299
3073.095304255299
2999.99299677612
2883.499612433794
2771.529808183193
2728.846580585864
2622.882142047159
2521.032431802344
2423.137669936893
2329.044280985096
2238.604653003744
2186.30978102551
2186.30978102551
2186.30978102551
2186.30978102551
2186.30978102551
2186.30978102551
2186.30978102551
2186.30978102551
3104.803844863746
3104.803844863746
3104.803844863746
3104.803844863746
3035.00593560431
2958.921207968036
2844.022691241865
2722.802788039258
2683.036963776681
2597.220862338164
2597.220862338164
2552.710913723302
2501.346429545197
2501.346429545197
2455.94109092216
2360.573905153941
2316.462608248116
2316.462608248116
2316.462608248116
2316.462608248116
2316.462608248116
2316.462608248116
2283.734406877644
2201.212295582427
3398.903209496294
3283.01546485603
3211.425710069612
3086.72213578394
3012.838533583626
3012.838533583626
3012.838533583626
2941.16960468247
2826.960404346857
2717.186086454111
2675.339784888102
2571.453080438391
2471.600423335631
2375.625166604797
2283.376746063819
2194.710444121318
2143.440961789716
2143.440961789716
2143.440961789716
2143.440961789716
2143.440961789716
2143.440961789716
2143.440961789716
2143.440961789716
3190.521448619867
3043.925338101712
3043.925338101712
3043.925338101712
3043.925338101712
2975.496015298344
2900.903145066703
2788.257540433201
2669.414498077704
2630.428395859492
2546.294963076631
2546.294963076631
2502.657758552257
2452.300421122742
2452.300421122742
2407.785383257019
2314.288142307785
2271.041772792271
2271.041772792271
2271.041772792271
2271.041772792271
2271.041772792271
2271.041772792271
2238.955300860435
2158.051270178849
3466.88127368622
3332.258048525779
3218.642612603951
3148.456578499619
3026.198172337196
2953.763268219241
2953.763268219241
2953.763268219241
2883.499612433794
2771.529808183193
2663.907927896187
2622.882142047159
2521.032431802344
2423.137669936893
2329.044280985096
2238.604653003744
2151.676906001292
2101.412707636976
2101.412707636976
2101.412707636976
2101.412707636976
2101.412707636976
2101.412707636976
2101.412707636976
2101.412707636976
3254.331877592264
3127.962204529281
2984.240527550698
2984.240527550698
2984.240527550698
2984.240527550698
2917.152956174847
2844.022691241865
2733.585823954118
2617.073037331083
2578.851368489698
2496.367610859442
2496.367610859442
2453.58603779633
2404.216099139943
2404.216099139943
2360.573905153941
2268.909943439005
2226.511541953207
2226.511541953207
2226.511541953207
2226.511541953207
2226.511541953207
2226.511541953207
2195.054216529838
2115.736539391029
3371.380559441757
3398.903209496294
3266.91965541743
3155.531973141128
3086.72213578394
2966.860953271761
2895.846341391413
2895.846341391413
2895.846341391413
2826.960404346857
2717.186086454111
2611.674439113909
2571.453080438391
2471.600423335631
2375.625166604797
2283.376746063819
2194.710444121318
2109.487162746365
2060.208536898996
2060.208536898996
2060.208536898996
2060.208536898996
2060.208536898996
2060.208536898996
2060.208536898996
2060.208536898996
3319.41851514411
3190.521448619867
3066.629612283609
2925.726007402645
2925.726007402645
2925.726007402645
2925.726007402645
2859.953878602791
2788.257540433201
2679.986101915802
2565.757879736355
2528.285655382056
2447.419226332786
2447.419226332786
2405.476507643461
2357.074606999945
2357.074606999945
2314.288142307785
2224.421513175495
2182.854452895301
2182.854452895301
2182.854452895301
2182.854452895301
2182.854452895301
2182.854452895301
2152.013937774351
2074.251509206891
3278.882759374203
3305.275058276232
3332.258048525779
3202.86240727199
3093.658797197184
3026.198172337196
2908.687209089962
2839.065040579816
2839.065040579816
2839.065040579816
2771.529808183193
2663.907927896187
2560.465136386185
2521.032431802344
2423.137669936893
2329.044280985096
2238.604653003744
2151.676906001292
2068.124669359181
2019.812291077448
2019.812291077448
2019.812291077448
2019.812291077448
2019.812291077448
2019.812291077448
2019.812291077448
2019.812291077448
3254.331877592264
3254.331877592264
3127.962204529281
3006.499619885891
2868.358830786907
2868.358830786907
2868.358830786907
2868.358830786907
2803.876351571363
2733.585823954118
2627.437354819414
2515.448901702309
2478.711426845153
2399.430614051751
2399.430614051751
2358.310301611236
2310.857457843083
2310.857457843083
2268.909943439005
2180.805405074015
2140.053385191471
2140.053385191471
2140.053385191471
2140.053385191471
2140.053385191471
2140.053385191471
2109.817586053286
2033.579910987148
3284.633600590654
3214.590940562944
3240.465743408071
3266.91965541743
3140.061183599991
3032.998820781553
2966.860953271761
2851.654126558786
2783.397098607663
2783.397098607663
2783.397098607663
2717.186086454111
2611.674439113909
2510.259937633515
2471.600423335631
2375.625166604797
2283.376746063819
2194.710444121318
2109.487162746365
2027.573205254099
1980.208128507301
1980.208128507301
1980.208128507301
1980.208128507301
1980.208128507301
1980.208128507301
1980.208128507301
1980.208128507301
3190.521448619867
3190.521448619867
3190.521448619867
3066.629612283609
2947.548646946952
2812.116500771477
2812.116500771477
2812.116500771477
2812.116500771477
2748.898383893493
2679.986101915802
2575.918975313151
2466.12637421795
2430.109242005052
2352.382954952698
2352.382954952698
2312.068923148271
2265.54652729714
2265.54652729714
2224.421513175495
2138.044514778446
2098.091554109285
2098.091554109285
2098.091554109285
2098.091554109285
2098.091554109285
2098.091554109285
2068.448613777731
1993.705795085439
3290.604108654408
3220.229020186915
3151.559745649944
3176.927199419677
3202.86240727199
3078.491356470579
2973.528255668189
2908.687209089962
2795.739339763516
2728.820684909474
2728.820684909474
2728.820684909474
2663.907927896187
2560.465136386185
2461.039154542662
2423.137669936893
2329.044280985096
2238.604653003744
2151.676906001292
2068.124669359181
1987.816867896176
1941.380518144413
1941.380518144413
1941.380518144413
1941.380518144413
1941.380518144413
1941.380518144413
1941.380518144413
1941.380518144413
3127.962204529281
3127.962204529281
3127.962204529281
3127.962204529281
3006.499619885891
2889.753575438188
2756.976961540664
2756.976961540664
2756.976961540664
2756.976961540664
2694.998415581856
2627.437354819414
2525.410760110932
2417.770955115638
2382.460041181423
2306.257798973233
2306.257798973233
2266.734238380658
2221.124046369745
2221.124046369745
2180.805405074015
2096.122073312202
2056.952504028711
2056.952504028711
2056.952504028711
2056.952504028711
2056.952504028711
2056.952504028711
2027.890797821305
1954.613524593567
3296.486082020425
3226.082459465106
3157.087274693054
3089.764456519553
3114.634509234978
3140.061183599991
3018.128780853508
2915.223780066852
2851.654126558786
2740.92092133678
2675.314396970073
2675.314396970073
2675.314396970073
2611.674439113909
2510.259937633515
2412.783484845747
2375.625166604797
2283.376746063819
2194.710444121318
2109.487162746365
2027.573205254099
1948.840066564878
1903.314233474915
1903.314233474915
1903.314233474915
1903.314233474915
1903.314233474915
1903.314233474915
1903.314233474915
1903.314233474915
3037.31280755469
3066.629612283609
3066.629612283609
3066.629612283609
3066.629612283609
2947.548646946952
2833.091740625674
2702.918589745749
2702.918589745749
2702.918589745749
2702.918589745749
2642.155309393976
2575.918975313151
2475.892902069541
2370.363681485919
2335.74513841316
2261.037057816895
2261.037057816895
2222.288469000645
2177.572594480142
2177.572594480142
2138.044514778446
2055.021640502159
2016.620101988932
2016.620101988932
2016.620101988932
2016.620101988932
2016.620101988932
2016.620101988932
1988.128233158142
1949.145326625629
1916.28776920938
3374.454449046381
3231.849100020024
3162.825940652064
3095.183602640249
3029.180839725052
3053.563244348018
3078.491356470579
2958.949785150498
2858.062529477306
2795.739339763516
2687.177373859588
2622.857251931444
2622.857251931444
2622.857251931444
2560.465136386185
2461.039154542662
2365.474004750732
2329.044280985096
2238.604653003744
2151.676906001292
2068.124669359181
1987.816867896176
1910.627516240076
1865.994346544034
1865.994346544034
1865.994346544034
1865.994346544034
1865.994346544034
1865.994346544034
1865.994346544034
1865.994346544034
3077.797488069906
2977.757654465382
3006.499619885891
3006.499619885891
3006.499619885891
3006.499619885891
2889.753575438188
2777.540922182034
2649.920186025244
2649.920186025244
2649.920186025244
2649.920186025244
2590.348342543114
2525.410760110932
2427.345982421119
2323.885962241097
2289.946214130549
2216.702997859701
2216.702997859701
2178.71418529475
2134.87509262759
2134.87509262759
2096.122073312202
2014.727098531528
1977.078531361698
1977.078531361698
1977.078531361698
1977.078531361698
1977.078531361698
1977.078531361698
1949.145326625629
1910.92679080944
1878.713499224882
3441.943538027308
3308.288675535668
3168.479509823553
3100.809745737318
3034.493728078676
2969.785136985345
2993.689455243154
3018.128780853508
2900.931161912253
2802.022087722849
2740.92092133678
2634.487621430969
2571.428678364161
2571.428678364161
2571.428678364161
2510.259937633515
2412.783484845747
2319.092161520326
2283.376746063819
2194.710444121318
2109.487162746365
2027.573205254099
1948.840066564878
1873.164231607918
1829.406222101994
1829.406222101994
1829.406222101994
1829.406222101994
1829.406222101994
1829.406222101994
1829.406222101994
1829.406222101994
3021.225354080908
3017.448517715594
2919.370249475865
2947.548646946952
2947.548646946952
2947.548646946952
2947.548646946952
2833.091740625674
2723.079335472582
2597.960966691416
2597.960966691416
2597.960966691416
2597.960966691416
2539.557198571681
2475.892902069541
2379.75096315796
2278.319570824605
2245.045307971126
2173.238233195785
2173.238233195785
2135.994299308579
2093.014796693716
2093.014796693716
2055.021640502159
1975.222645619145
1938.312285648724
1938.312285648724
1938.312285648724
1938.312285648724
1938.312285648724
1938.312285648724
1938.312285648724
1910.92679080944
1873.457638048471
1873.457638048471
1841.875979632237
1841.875979632237
3470.433804543576
3374.454449046381
3243.420270133007
3106.352460611326
3040.009554644429
2974.993851057525
2911.554055867985
2934.989662003093
2958.949785150498
2844.050158737503
2747.080478159656
2687.177373859588
2582.831001402911
2521.008508200157
2521.008508200157
2521.008508200157
2461.039154542662
2365.474004750732
2273.619766196397
2238.604653003744
2151.676906001292
2068.124669359181
1987.816867896176
1910.627516240076
1836.435521184233
1793.5355118647
1793.5355118647
1793.5355118647
1793.5355118647
1793.5355118647
1793.5355118647
1793.5355118647
1793.5355118647
3037.607320452139
2961.985641255792
2958.282860505484
2862.127695564573
2889.753575438188
2889.753575438188
2889.753575438188
2889.753575438188
2777.540922182034
2669.685623012335
2547.020555579819
2547.020555579819
2547.020555579819
2547.020555579819
2489.761959384
2427.345982421119
2333.089179566627
2233.646638063338
2201.024811736399
2130.625718819397
2130.625718819397
2094.112058145665
2051.975290876192
2051.975290876192
2014.727098531528
1936.492789822691
1900.30616240071
1900.30616240071
1900.30616240071
1900.30616240071
1900.30616240071
1900.30616240071
1900.30616240071
1900.30616240071
1873.457638048471
1836.723174557324
1836.723174557324
1805.76076434533
1805.76076434533
3402.386082885859
3402.386082885859
3308.288675535668
3179.823794248046
3045.443588834634
2980.401524161205
2916.660638291691
2854.464760654887
2877.440845101071
2900.931161912253
2788.284469350493
2693.216155058486
2634.487621430969
2532.187256277363
2471.576968823684
2471.576968823684
2471.576968823684
2412.783484845747
2319.092161520326
2229.038986467056
2194.710444121318
2109.487162746365
2027.573205254099
1948.840066564878
1873.164231607918
1800.42698155317
1758.368148886961
1758.368148886961
1758.368148886961
1758.368148886961
1758.368148886961
1758.368148886961
1758.368148886961
1758.368148886961
1758.368148886961
3054.327420529017
2978.046392600136
2903.907491427247
2900.277314221063
2806.00754467115
2833.091740625674
2833.091740625674
2833.091740625674
2833.091740625674
2723.079335472582
2617.338846090525
2497.078976058646
2497.078976058646
2497.078976058646
2497.078976058646
2440.943097435294
2379.75096315796
2287.342332908458
2189.849645160135
2157.867462486665
2088.848743940585
2088.848743940585
2053.051037397711
2011.740481251168
2011.740481251168
1975.222645619145
1898.522342963423
1863.045257255598
1863.045257255598
1863.045257255598
1863.045257255598
1863.045257255598
1863.045257255598
1863.045257255598
1863.045257255598
1863.045257255598
1836.723174557324
1800.708994664044
1800.708994664044
1800.708994664044
1770.353690534638
1770.353690534638
3345.062665315078
3335.672630280254
3335.672630280254
3243.420270133007
3117.47430808632
2985.729008661406
2921.962278589417
2859.471214011462
2798.494863387145
2821.020436373599
2844.050158737503
2733.612224853424
2640.407995155379
2582.831001402911
2482.536525762121
2423.114675317337
2423.114675317337
2423.114675317337
2365.474004750732
2273.619766196397
2185.332339673585
2151.676906001292
2068.124669359181
1987.816867896176
1910.627516240076
1836.435521184233
1765.124491718794
1723.89034204604
1723.89034204604
1723.89034204604
1723.89034204604
1723.89034204604
1723.89034204604
1723.89034204604
1723.89034204604
1723.89034204604
3071.195697748914
2994.438647577467
2919.653326078565
2846.968128850242
2843.409131589277
2750.987788893284
2777.540922182034
2777.540922182034
2777.540922182034
2777.540922182034
2669.685623012335
2566.018476559338
2448.116643194751
2448.116643194751
2448.116643194751
2448.116643194751
2393.081468073818
2333.089179566627
2242.492483243586
2146.911416823662
2115.55633577124
2047.890925431946
2047.890925431946
2012.795134703638
1972.294589461929
1972.294589461929
1936.492789822691
1861.296414670022
1826.514958093723
1826.514958093723
1826.514958093723
1826.514958093723
1826.514958093723
1826.514958093723
1826.514958093723
1826.514958093723
1826.514958093723
1826.514958093723
1800.708994664044
1765.400975160827
1765.400975160827
1765.400975160827
1735.640873073174
1735.640873073174
3347.577136345048
3279.473201289292
3270.267284588484
3270.267284588484
3179.823794248046
3056.347360868941
2927.185302609221
2864.668900577859
2803.403150991629
2743.622415085436
2765.706310170195
2788.284469350493
2680.011985150416
2588.635289368018
2532.187256277363
2433.859338982471
2375.602622860134
2375.602622860134
2375.602622860134
2319.092161520326
2229.038986467056
2142.482685954495
2109.487162746365
2027.573205254099
1948.840066564878
1873.164231607918
1800.42698155317
1730.514207567445
1690.088570633372
1690.088570633372
1690.088570633372
1690.088570633372
1690.088570633372
1690.088570633372
1690.088570633372
1690.088570633372
1690.088570633372
1690.088570633372
1690.088570633372
3039.897468604576
3010.976174263641
2935.724164291635
2862.405221645652
2791.145224362983
2787.656011362037
2697.046851856161
2723.079335472582
2723.079335472582
2723.079335472582
2723.079335472582
2617.338846090525
2515.704388783665
2400.114356073286
2400.114356073286
2400.114356073286
2400.114356073286
2346.158302033155
2287.342332908458
2198.522042395673
2104.815114533002
2074.074838991412
2007.736201403869
2007.736201403869
1973.328563434939
1933.622146531303
1933.622146531303
1898.522342963423
1824.800406539237
1790.700939307572
1790.700939307572
1790.700939307572
1790.700939307572
1790.700939307572
1790.700939307572
1790.700939307572
1790.700939307572
1790.700939307572
1790.700939307572
1765.400975160827
1765.400975160827
1730.785269765516
1730.785269765516
1730.785269765516
1701.608699091347
3281.938368965733
3281.938368965733
3215.169805185581
3206.144396655377
3206.144396655377
3117.47430808632
2996.41898124406
2869.789512361981
2808.498922135156
2748.434461756499
2689.825897142584
2711.476774676662
2733.612224853424
2627.462730539623
2537.877734674528
2482.536525762121
2386.13660684556
2329.022179274642
2329.022179274642
2329.022179274642
2273.619766196397
2185.332339673585
2100.473221524014
2068.124669359181
1987.816867896176
1910.627516240076
1836.435521184233
1765.124491718794
1696.582556438672
1656.949579052326
1656.949579052326
1656.949579052326
1656.949579052326
1656.949579052326
1656.949579052326
1656.949579052326
1656.949579052326
1656.949579052326
1656.949579052326
1656.949579052326
1656.949579052326
2975.047227277671
2980.291635886839
2951.937425748668
2878.160945383956
2806.279629064364
2736.416886630375
2732.996089570624
2644.163580251138
2669.685623012335
2669.685623012335
2669.685623012335
2669.685623012335
2566.018476559338
2466.376851748691
2353.053290267927
2353.053290267927
2353.053290267927
2353.053290267927
2300.15519807172
2242.492483243586
2155.413767054582
2063.544229934316
2033.406704893541
1968.368824905754
1968.368824905754
1934.635846504842
1895.707986795395
1895.707986795395
1861.296414670022
1789.020006411017
1755.589156183894
1753.941182755899
1755.589156183894
1755.589156183894
1755.589156183894
1755.589156183894
1755.589156183894
1755.589156183894
1755.589156183894
1755.589156183894
1755.589156183894
1730.785269765516
1730.785269765516
1696.848303691683
1696.848303691683
1696.848303691683
1668.243822638576
3246.150252621648
3217.586636240915
3217.586636240915
3152.127259985863
3143.278820250369
3143.278820250369
3056.347360868941
2937.665667886333
2813.519129766648
2753.43031581878
2694.543589957352
2637.084212884887
2658.310563408492
2680.011985150416
2575.943853470219
2488.115426151498
2433.859338982471
2339.34961455447
2283.355077720237
2283.355077720237
2283.355077720237
2229.038986467056
2142.482685954495
2059.287472082367
2027.573205254099
1948.840066564878
1873.164231607918
1800.42698155317
1730.514207567445
1663.316231802619
1630.702188041784
1624.460371619927
1624.460371619927
1624.460371619927
1624.460371619927
1624.460371619927
1624.460371619927
1624.460371619927
1624.460371619927
1624.460371619927
1624.460371619927
1624.460371619927
1624.460371619927
3029.113179380004
2916.712967919286
2921.854544987097
2894.056299753596
2821.726417043094
2751.254538298396
2682.761653559191
2679.407930951592
2592.317235540332
2617.338846090525
2617.338846090525
2617.338846090525
2617.338846090525
2515.704388783665
2418.016521322246
2306.914990458752
2306.914990458752
2306.914990458752
2306.914990458752
2255.054115756589
2198.522042395673
2113.150752014295
2023.082578366976
1993.535985189746
1929.773357750739
1929.773357750739
1896.701810298865
1858.53724195627
1858.53724195627
1824.800406539237
1789.020006411017
1721.165839395974
1719.55017917245
1721.165839395974
1721.165839395974
1721.165839395974
1721.165839395974
1721.165839395974
1721.165839395974
1721.165839395974
1721.165839395974
1721.165839395974
1721.165839395974
1696.848303691683
1696.848303691683
1696.848303691683
1663.576768325179
1663.576768325179
1663.576768325179
1663.576768325179
3249.689958808132
3182.500247668283
3154.496702196975
3154.496702196975
3090.320843123396
3081.645902206245
3081.645902206245
2996.41898124406
2880.064380280719
2758.352088006518
2699.441486096844
2641.709401918973
2585.376679298909
2606.186826871071
2627.462730539623
2525.435150460999
2439.328849168135
2386.13660684556
2293.480014269088
2238.583409529644
2238.583409529644
2238.583409529644
2185.332339673585
2100.473221524014
2018.909286355262
1987.816867896176
1910.627516240076
1836.435521184233
1765.124491718794
1696.582556438672
1663.316231802619
1598.727635335082
1592.608207470517
1592.608207470517
1592.608207470517
1592.608207470517
1592.608207470517