/*--------------------------------*- C++ -*----------------------------------*\
| =========                 |                                                 |
| \\      /  F ield         | OpenFOAM: The Open Source CFD Toolbox           |
|  \\    /   O peration     | Version:  v1912                                 |
|   \\  /    A nd           | Website:  www.openfoam.com                      |
|    \\/     M anipulation  |                                                 |
\*---------------------------------------------------------------------------*/
FoamFile
{
    version     2.0;
    format      ascii;
    class       volScalarField;
    location    "6000";
    object      rho;
}
// * * * * * * * * * * * * * * * * * * * * * * * * * * * * * * * * * * * * * //

dimensions      [1 -3 0 0 0 0 0];


internalField   nonuniform List<scalar> 
18230
(
0.2917280800919013
0.1666648542061404
0.31930374975556
0.2913493631446892
0.1169171846760252
0.1702783900321424
0.2383874379492229
0.3184257566220876
0.2904583243795911
0.3318667599686997
0.1257219956372195
0.1720086068859608
0.1487125851265556
0.2415014539521177
0.3171071199165559
0.2900604808832832
0.3990261914936084
0.3349061577140388
0.1305456833694786
0.1743055917422832
0.2888700960329526
0.1462681897732011
0.2423748323475003
0.3153659488224929
0.2893516440913015
0.4071263974887355
0.4000016045994256
0.3350682209618342
0.1354869750376076
0.177469292603172
0.4809319307056364
0.2938939692590464
0.1431524236438317
0.2427244231674348
0.315015468447775
0.2889184006585672
0.4136390773203657
0.4077905903125058
0.3988491002122183
0.3368592268391776
0.1410005857141774
0.1810867633145598
0.6075234726471236
0.4831290260053763
0.2972600167202908
0.1430754287630754
0.2416520630743775
0.3143266817125692
0.2886757971920113
0.4220382549380782
0.4143903755792125
0.4066249960008332
0.3991675707667287
0.3386952084670878
0.1473593502818682
0.1844723663547728
0.62153603286211
0.6095890433597526
0.4851860632894125
0.3026046568054481
0.1448425937711859
0.2417031198216594
0.3138712038855515
0.2888732546375374
0.4315736500990781
0.4229038042248638
0.4130883024950196
0.4067107978240702
0.3989559447062215
0.3409722753062396
0.1542610777703665
0.1883259999550125
0.6310007971359775
0.6228556445389919
0.6092202551061288
0.4877942806684892
0.3082351456741569
0.1477956461490271
0.2416838994888834
0.3135409365766944
0.2890910734390849
0.44231089473913
0.4324383418965472
0.4214384197903602
0.4132906631993826
0.4064056082088
0.3990613865108246
0.3438778130740169
0.1620949352041763
0.1920938701230626
0.6325915427925498
0.6321986559748489
0.6232934905526456
0.6102782140152025
0.488844676231791
0.3140176236011911
0.1508509028148775
0.2418519519558168
0.3131977995956639
0.2898327837272426
0.4551600175447239
0.4434063245452765
0.4309359021418273
0.4215958501237814
0.4129089482825301
0.4063852916235254
0.3990253198819894
0.3469153804011875
0.1707696717862429
0.1965114842172921
0.6316283840564808
0.6339513703725055
0.6324268064958286
0.6237286457003202
0.6102841397912234
0.4924190611747951
0.3215484534310349
0.1546577355306249
0.2425064264677163
0.3131567857113305
0.2907772867997405
0.4691111950860016
0.4562818891943344
0.4415733659736067
0.431098338088812
0.4213353320981658
0.4128833503728919
0.4062824436163363
0.3992116691434879
0.3501988214655951
0.1804981149358806
0.2014612011596119
0.6297988805190874
0.6332942496006695
0.6341548735449304
0.6330939432883049
0.6241592119181661
0.6112694835330561
0.4937805696921057
0.3285707154547921
0.1597548966557079
0.2436285465921635
0.3120509055405304
0.2927638054713804
0.4925028733225283
0.4703177605462903
0.4543086325051426
0.4418473281966701
0.4308208299905791
0.4212925444593867
0.4127759503996884
0.406255564188692
0.3993112278184183
0.3537771764028934
0.1911112373982255
0.2077233329715505
0.6267980318712424
0.6313469913609158
0.6332697237030603
0.6347131726889493
0.63326982242346
0.6246514668176882
0.6115388598294477
0.4972961352126616
0.3361384977500469
0.1651890773420414
0.2449814970651753
0.3116545658811222
0.2957340504414809
0.5478143953359297
0.493455215330514
0.4680922327154223
0.4546063367450104
0.4415274937285156
0.4308014391461181
0.4212318806560897
0.41273663551574
0.4062058373154682
0.3995137083474718
0.3579547674004946
0.2026864856318837
0.2150184537107287
0.6251119385952256
0.6282705431346798
0.6313802832835101
0.63381973224062
0.6348747396813068
0.6338444290787297
0.6250826098243404
0.6126839174016947
0.5009591796652902
0.345276526043913
0.1712387250307246
0.2468293094345493
0.3118785913928991
0.3003407080689126
0.6240766389067423
0.5473716930689456
0.4915001107622694
0.4685283004318652
0.4542597035263042
0.4414838373517635
0.4306375511468989
0.421182436539587
0.412711388083645
0.4062098849327598
0.3996796908078727
0.3620519354193741
0.2153939109333855
0.2228615107094293
0.6221822915923797
0.6264641941715802
0.6283849897252475
0.631893735050873
0.6340669868136896
0.6354593393707366
0.6340858206509578
0.6256634831224713
0.6128150084582491
0.5055717736757989
0.3540998827605294
0.1752898555465955
0.2504339933106471
0.3126950273005303
0.306785502317284
0.7238157321807646
0.6238970539844508
0.546602498409097
0.4921944342394066
0.468137601931764
0.4541816142204023
0.4414126675487552
0.4306516941025125
0.4211704343419461
0.4126805859209617
0.406211824832426
0.3999307720099265
0.36609147972107
0.2288590520987389
0.2315533911083034
0.6174427388029616
0.6235195759611263
0.6269282919664263
0.6288761391360258
0.6321593529348207
0.6345841464430186
0.6355823247658973
0.6346464663136705
0.6262242036460793
0.6142641793039991
0.5095552372654438
0.3640354684244055
0.1816835749807097
0.2574894608765962
0.3143285966393397
0.3156673736525847
0.7794953602555633
0.7232256313781985
0.6231682327470044
0.5467091939803224
0.4912710060223746
0.4681277000794749
0.4540721459748817
0.4413319202669748
0.4305725729545627
0.421144481398519
0.4126972619013986
0.4062787780749222
0.4002046092031855
0.3703566385209648
0.2430846219974143
0.2421039077697518
0.6093555498720908
0.6186403932953179
0.6237208061409614
0.6271392403613351
0.6292050888024678
0.6326517139330244
0.6347567929763965
0.6362669090761703
0.6349845192840909
0.6267972506585654
0.6144853760501007
0.5155492171920024
0.3748047713383033
0.190218362095443
0.2682160981219033
0.315650983335279
0.3267665618315329
0.8029654967931201
0.7786155285497518
0.7226670342930699
0.6227222579087779
0.5467381310892869
0.491643182298389
0.4678688027561798
0.4539230624664039
0.4412638759091249
0.4305845724613727
0.4211909035436407
0.412770584125132
0.4064108855144061
0.400633658357529
0.3744831339446631
0.2574743758447693
0.2544470974095844
0.5999902185673402
0.6106163099125903
0.6190053442652078
0.6241439177753367
0.6276754121629541
0.6296436351721424
0.6328345222731014
0.6354772017587407
0.6364198482207652
0.6355290537165135
0.6274525291360548
0.6158960550521314
0.5207178749353202
0.38656002239798
0.199431301994038
0.2820656868649764
0.3166581127785033
0.3390738736389572
0.8199839498247534
0.8019087046744346
0.7780231944092846
0.7223782813488537
0.6226735117926839
0.5462953854186082
0.4911439712189463
0.4678235029428264
0.4538222532240245
0.4412289641176238
0.4305692716075015
0.4212664675381779
0.4129109891804887
0.4066161769186783
0.4011196981657121
0.3786334789803283
0.2717705423744836
0.2688371488439729
0.6122904605362778
0.6011155122451567
0.6108691484261083
0.6194060071998861
0.6244330967242523
0.6279263831602867
0.6299923547271259
0.6334913257518748
0.6355410796842356
0.6370260234935511
0.6358493762407285
0.6280166255983072
0.6162512351456244
0.5277226894535199
0.3991216283017293
0.2096173607469311
0.3006923609182588
0.3226053052052256
0.353262317277099
0.8359551011312792
0.8188786494259932
0.8015267817341626
0.7775829096381615
0.7219036464123535
0.6220976180496067
0.5459462888216546
0.4913502022382233
0.4675982541497006
0.4536927777650143
0.4411962360792205
0.4306514439681834
0.4214441460589444
0.4131586660824765
0.40697041047574
0.4017971395203429
0.3826172458520739
0.2856569374561432
0.284526831254464
0.6304739829384323
0.6140722445921621
0.6015075560610815
0.6112826653645993
0.6197158786477183
0.6248564950405194
0.6284074474002638
0.6304859824167489
0.6336044677319832
0.6364013328687014
0.6372236960801902
0.6364490102433739
0.6286834166294839
0.6172207754160879
0.5345276262455494
0.4109230747466877
0.2226016371378116
0.3244135837219809
0.3314375072276499
0.3701009750258785
0.8507486412156684
0.8348897232847792
0.818493871624189
0.8010100979397271
0.7770444207069629
0.72155275850052
0.6224748982001505
0.5458563418249244
0.4908166830189416
0.4675474708663453
0.4536106893074222
0.4412625800427861
0.4308094174518437
0.4217115708353428
0.4135689211718493
0.407455824850993
0.4025282662880951
0.3863990067441229
0.299340235197046
0.3010565238864238
0.6421731621314556
0.6317459106273154
0.6138290897367779
0.60184486514726
0.6116768344969207
0.6200924387671162
0.6251699040301719
0.6287049847805856
0.6307618822129278
0.6343838403870222
0.6362680490906067
0.6375738732848765
0.6363587567851593
0.6291496599362043
0.6181578505395261
0.5419342304247553
0.4190778875371461
0.2359999300293383
0.3513044584511666
0.3424550821712845
0.3908294300198527
0.8640035852126937
0.8496456568999139
0.8345178780241101
0.8180171183363906
0.8005656990233495
0.7766145172644273
0.7209699098142471
0.6215744574276176
0.5457830669511105
0.4911045754284185
0.4673760509128008
0.4535672238295761
0.441380230199485
0.4310602138226388
0.4221491824270661
0.4141379069200993
0.4081362718585189
0.4034692406117314
0.3899610136623251
0.3125166117322781
0.3186701736652963
0.6251072131366954
0.6434620205427817
0.6318977612567961
0.6145980013029825
0.6021426182152465
0.6119604594030146
0.6204083529925998
0.6256611176346557
0.6291179585125806
0.631308863989371
0.6342868939844232
0.6368755941257279
0.637763573425589
0.6368159553884046
0.6296706726877295
0.6194565629925635
0.5493480493304658
0.4266947380486095
0.2498202771884449
0.380122733929759
0.3562082320651238
0.4152456119839865
0.8777720787567832
0.8630234448740519
0.8493873410383722
0.8339863900022529
0.8174718793743243
0.799921159724217
0.7759755737726659
0.7206052226291529
0.6214863321265002
0.5453442022005055
0.4906461077200528
0.4673634575058437
0.4535783679655302
0.4416279078459243
0.4314709945801298
0.4227367067973802
0.4149612478069605
0.4089824294052646
0.4044258575519911
0.3932871620065586
0.325007030345988
0.3373959245392231
0.6043448258646534
0.6263886007604714
0.6436498125716231
0.6322768920806134
0.614481951703152
0.6024793286546712
0.6122489997051686
0.6208483972415686
0.6258259269274269
0.6296626100181318
0.6314498581718847
0.6347822696186424
0.6366231400277614
0.6379616140660588
0.6369874746556571
0.630204249963509
0.6202438178717949
0.5574570116634361
0.4362448628051502
0.2645657452155276
0.4071699276230704
0.3733354629198181
0.4420522620337966
0.8887726788458647
0.8764402741447469
0.8626752524590647
0.8488971958970485
0.8335643107696888
0.8169957148473856
0.7993294703401759
0.7753366071673942
0.7197752941690467
0.6210803503435338
0.5452556808741194
0.4909620693569737
0.4673178547007112
0.4537138926834118
0.441989066431101
0.432035963266465
0.4235647382946431
0.4160067525920714
0.4100653174706123
0.4056432158256129
0.3963672806033798
0.3365156529346578
0.3566660646410725
0.5937715608423063
0.6057316146311401
0.626846174882109
0.6439685003858966
0.6326238064813076
0.6152167317809223
0.6027967474960992
0.6127242273327479
0.6210718801937419
0.626569542446666
0.6297684640243938
0.6316147569523529
0.6346100619990253
0.6369214425087483
0.6380569754241096
0.6371105400036178
0.6306734755722022
0.6215566928197177
0.5649403180610122
0.447678323507816
0.2801482893120255
0.4349721085725426
0.3935210860656916
0.4693562740165037
0.9010230451649334
0.8876914456240153
0.8761318649211187
0.8621793440696448
0.8484542307966776
0.8329977438927528
0.8163929284470997
0.7987266250672143
0.7747177414573391
0.7194904217611487
0.6207328223718624
0.5451318781560082
0.4906864450003292
0.4675015017126694
0.4539556335144659
0.4424960727935647
0.4328352609406322
0.424604223404096
0.4173476808145754
0.4113917658904124
0.4069987434663341
0.3992564331884285
0.3467843682092812
0.3767728405371645
0.620346928564639
0.5950183873071297
0.6058307003694763
0.6269316127085012
0.644237306818307
0.6329028846270023
0.6152125550314973
0.6031232355773747
0.6128581798515499
0.6216427939688316
0.6264564479054876
0.63013398624023
0.6317869162792292
0.6347693737939115
0.6369072428255511
0.6380497897772825
0.6371247298652747
0.6311707577629088
0.6224997692990002
0.5724492234717454
0.4606285527535605
0.2958069764879998
0.4644166554869518
0.4158731648435657
0.4964398307047551
0.9106115654373096
0.8996040222850034
0.8873756842465368
0.8755945565311127
0.8616873176938833
0.8478297055252846
0.8324164310511466
0.8157417608989148
0.7980858897998907
0.7739587991598939
0.7187850745318706
0.6204857326297211
0.54512967235403
0.4911786445518783
0.4677020552127938
0.4543611872955525
0.4432060939963808
0.4338371554749921
0.4259153713830249
0.4190031899051968
0.4130366706193567
0.4086436662302777
0.4019848189112647
0.3552310208243006
0.3974347747557745
0.6548429791114281
0.6225049145007278
0.5955974751789728
0.6061946832284919
0.6272143814666856
0.6445243237961686
0.6331710103139312
0.6159006482234634
0.6034192531117045
0.6133974393882942
0.6217056411365314
0.6268855705350688
0.6299688813574893
0.6318931918602131
0.634726207707521
0.6368394211851424
0.637937592226663
0.6370343675803021
0.6316466668855859
0.6238702256968338
0.5794938118765861
0.4740902190857126
0.311334054950255
0.4964729905671411
0.4402823241698305
0.5220378826622794
0.920439712949645
0.9092611882745683
0.8989971232174703
0.8867187850392281
0.8750294081605603
0.8610427096478754
0.8471737602359023
0.8317022797587974
0.8150357415296914
0.797312949413653
0.7733031750320395
0.7183014834181149
0.6203320180848546
0.5451425671867233
0.4911896533393106
0.4681644597320752
0.454912838308229
0.4441215171661445
0.4350925217176749
0.4275196574273055
0.4209757716271645
0.4151430422341045
0.4105787645072213
0.4047058562796342
0.3623877927540937
0.4201471076657184
0.6746632939054567
0.6560669054533294
0.6215422156918911
0.5955764527699464
0.6064620848279307
0.6274408404445853
0.6447764083800083
0.6335183757285942
0.6157890720112003
0.6036993605743725
0.6133762157156578
0.6219577112847887
0.6268611770044982
0.6301472234121442
0.6319211038385865
0.6346024780756147
0.6366397786319564
0.6377370061160564
0.6369176161227125
0.6322981114721331
0.625054475407588
0.586026651554733
0.4872098879346495
0.3263679495782252
0.528406677260951
0.4655333337911009
0.5450323272852737
0.9300205902779165
0.9191206253579575
0.9085706549113429
0.8983368008969906
0.8861216467954127
0.874324130573451
0.8603638730430074
0.8465030699405275
0.8309919732490145
0.81429446776666
0.7966083180143096
0.7725177732680837
0.7177195157969583
0.6203108121956851
0.5454629671164485
0.4920123097337674
0.4687147424292585
0.4556634448460034
0.4452277885309584
0.436625432734529
0.429426357896521
0.4233957579744573
0.4177195905735789
0.4130671324172736
0.4074779066034029
0.3678751326229646
0.4455200580993786
0.5735815239980439
0.6760488060334887
0.655854441183424
0.6221448505292372
0.5961974846254154
0.6065980607771673
0.6276954485715438
0.6450193348173588
0.6337726617849332
0.6161821543844597
0.6039561606396591
0.6136362636967031
0.6220519090534135
0.6269754226777602
0.6301162129959387
0.6318359792512214
0.6343573078011245
0.6363389471453605
0.6374984342595162
0.6368441005156165
0.6328900029440151
0.6263906365388965
0.5919051908441063
0.4996912174717733
0.3415546732902658
0.5631295548364322
0.4906025059463847
0.5662854788572922
0.9383907162122698
0.9286444641296041
0.9184059661228615
0.9079777020226288
0.8976979796948761
0.8854529618833547
0.8736614308064099
0.8596166550327942
0.8457315913046086
0.8302578258893042
0.8135069984376572
0.7958187820210134
0.7718662654489072
0.7172190494471842
0.6203014455028324
0.5457941815292406
0.4923730495536998
0.4695256678569691
0.4565720388783849
0.4465997278899785
0.4384366615061855
0.4317526996874208
0.4262372708634142
0.4208712683820262
0.4160381424411668
0.4104472076464315
0.3735868124562202
0.4716507294371285
0.4579070288204754
0.5745737386736508
0.6757176642415876
0.656185328051187
0.6221213272156988
0.5959995531267447
0.6067897514070779
0.6278041416830059
0.6450442826975162
0.6340190014384566
0.6163845637907927
0.6041538989319081
0.6137230035247122
0.6221026415161637
0.6269296827781186
0.6300252589329529
0.6316545693072576
0.6340030557265913
0.6360152122036807
0.6371151627301654
0.6367944428115427
0.6336034852387515
0.6276902303047006
0.597093121318612
0.5112804081649587
0.3571417860695733
0.5989861137848148
0.5100064899479221
0.5773455176771189
0.9468154126404998
0.9370053450403056
0.9279255095225867
0.9177005819594299
0.9072860529354853
0.8969828972570789
0.884672719940224
0.8728638538726028
0.8588307935404098
0.8448994719396297
0.8294249618384603
0.8127218216096381
0.7950210981459246
0.7710971159628508
0.7167950290408786
0.6205611924051359
0.5463821736661311
0.4936802689808655
0.4704638176264723
0.457755407223536
0.4482074703143347
0.4406363572163572
0.4344851633635801
0.4295334808545859
0.4246343763649303
0.4194909921501093
0.4137807512828236
0.379348543849565
0.4958070551960342
0.4202450849964586
0.4593262777943189
0.574068317196829
0.6757430661518544
0.6561928252689866
0.6221777960686938
0.596619430292842
0.6068638824207334
0.628000397500905
0.6453137468946883
0.6342151723879922
0.6165527028647508
0.6043125034736233
0.6137266315824917
0.6220589569343363
0.626806201014407
0.629818146632585
0.6313744095150936
0.6336253433107953
0.635689761065967
0.6369621790456502
0.6367810799731685
0.6342251255612127
0.6289758868990469
0.6016663698823663
0.5216784172656275
0.3744845212415797
0.6402520478401191
0.5271661093820752
0.5753166989490125
0.9545454063014279
0.945392415572178
0.9363064365232943
0.9273202536399281
0.9170908626532588
0.9065089040385528
0.8961968075898737
0.8838770986414943
0.8720424906349855
0.8579937459783318
0.8440830120708901
0.828594305215664
0.8119304678196971
0.7942656130627489
0.7704171569624364
0.7164976723070577
0.620885396378566
0.5471733120710356
0.4945609696904827
0.4717709209222441
0.4591739845190235
0.4501898457113775
0.4431993904981061
0.4376645237175217
0.4333180303163654
0.4289103625083305
0.4234842070472246
0.4177317858138501
0.3853543444364794
0.5041142136114676
0.4401524773255349
0.420543805197496
0.4579569860746612
0.5743353177834046
0.6759495670316509
0.6564394143132314
0.6224899001855193
0.5967256535530298
0.6069058505089495
0.6279792679190491
0.6453724602031038
0.6343336785913484
0.6166778446290919
0.6043793046103259
0.613633763143323
0.6219112425192267
0.6265726361790331
0.6295179622569359
0.6310809367732879
0.6332098952647648
0.6353211966638506
0.6365739646556532
0.6367650804156537
0.6348066866339108
0.6302047700934298
0.6056933410571245
0.5307493755924099
0.3960597607184803
0.6431037706156627
0.5180248462381195
0.5669213111941841
0.5778283025515122
0.9621375354689449
0.9530632672478559
0.9446816796552692
0.9356179667306512
0.9265935342465382
0.9163530907757057
0.9058214415124789
0.8954175845302793
0.883037714372252
0.8711903369224151
0.857153298436178
0.8432299360382048
0.8277513641823605
0.8111265662228898
0.7935307874757599
0.7697608125912844
0.7162136818123392
0.6215493828095828
0.5481936061804851
0.496281164421417
0.4732519699688661
0.4610239215998963
0.4525014731546252
0.4461920586768465
0.4413355253616992
0.4374950980045881
0.4336054557548641
0.4280922028088444
0.4221440358772853
0.3869747039538829
0.4335395778020145
0.4692851693685548
0.4409470599753056
0.4205302549589164
0.4583697369538782
0.5742753353907182
0.6756244697076549
0.6565458662795672
0.6224077338640212
0.5964134079185353
0.6069267530528935
0.6279887858891522
0.6453640066593714
0.6344018294186529
0.6167018322650406
0.6043275319564458
0.6134343892649375
0.6216633420230303
0.6262419086951254
0.629202062300324
0.6307757455407509
0.6328208766142142
0.6349293345271133
0.6361647927139613
0.6366768698383993
0.6352309557630843
0.6313429925321475
0.6091327453320243
0.5382514416807248
0.4142962757836555
0.6284357070706413
0.5494329285504144
0.5638055510888534
0.5988093627972272
0.9692258256590922
0.9606073839355974
0.9523194559060083
0.9439537189145817
0.9349270252284477
0.9258983692648757
0.9156093325076439
0.9049725226692173
0.8945477621716007
0.8821631845116932
0.8703291362315091
0.856287857208199
0.8423947572546994
0.8269494867849112
0.810370031554723
0.7928221625479324
0.7691746298132822
0.7161431854097716
0.6223651203981591
0.5494478700641938
0.4978854686319468
0.4752666031644006
0.4632015024533263
0.4552984775908805
0.4496486018305535
0.4453952573083055
0.4421396484681167
0.4386639142050672
0.4331713219230503
0.4260797696574652
0.4058731984544375
0.4244497655513378
0.4929719506628576
0.4697682635660792
0.4403852457279238
0.4205616468328873
0.458618534869235
0.5743048173471129
0.6759241964608558
0.6565435704074204
0.6224144646721683
0.5969651590485825
0.6069211861550251
0.6278961305440929
0.6453044700702948
0.6343928031217174
0.6166612583658321
0.6041731569005963
0.6131485947966255
0.621329905524137
0.6258922546291842
0.6288641774038011
0.630488294644467
0.6323753171152136
0.6344886488099997
0.6357523693682935
0.6364430038664487
0.6354539815905962
0.6323204498632573
0.6120174880118732
0.5453704186314494
0.4455273495038061
0.6169990009743413
0.5557051257643582
0.552548104418816
0.5736485824718895
0.5931219165728823
0.537260239607428
0.6223061919630918
0.9759392440088804
0.9676204418682084
0.9598480448276183
0.9516252572137069
0.9432394061129225
0.9341503275022515
0.9251073113075723
0.9147803784423697
0.9041623054019832
0.8937119588296327
0.8813261942756996
0.8694536243304066
0.8554297812326861
0.8415689471210408
0.8261610544343223
0.8096543237003171
0.7921804341539185
0.7686584554355147
0.7161110234879904
0.6233303229930696
0.5509962256216895
0.5003203921202297
0.477552210989514
0.4659830980834738
0.4585907051982298
0.4535682036567152
0.4500394084409205
0.4472102803589166
0.444105792342166
0.4381574692674859
0.4321613847202074
0.414944234308699
0.4162865725245008
0.5082244468328224
0.4933579199441394
0.4693469707478964
0.4405947614189634
0.4205538047477816
0.4582426867427029
0.5743267211543144
0.6757301818854389
0.6566420706902333
0.6225000770526447
0.5968695849713334
0.6068224530511113
0.627728453364459
0.6452158133642755
0.6343128409216184
0.6166383180579742
0.6040139040854926
0.6127827765322309
0.6209732108616322
0.6255191232431893
0.6285454478186124
0.6301687417647266
0.6319256592071235
0.6339226264329404
0.635303773018326
0.6360308647448074
0.6355370967003467
0.6330721378985806
0.6141353940483293
0.547627172604723
0.4230152184857539
0.5134499533370991
0.6156070054979729
0.5705104098924505
0.5961389915936779
0.573701984462796
0.6152276779725261
0.5544074538037277
0.6394847459318239
0.9820489970133818
0.974378993473501
0.9668576772308319
0.9591115798290801
0.9509376412373965
0.9425100084398609
0.9333681621838086
0.9242805989255602
0.9139154028719051
0.9032691392386796
0.8927972170947607
0.8804048006969436
0.8685885902450108
0.8545867404550729
0.840770059506612
0.8254441510117542
0.8089907006887372
0.7916062352686047
0.768185651317008
0.7161819532112494
0.6245087712196616
0.5530114127379075
0.5029050145138839
0.4805512240457566
0.4693239079408333
0.4624916561594487
0.4581970811308282
0.4551496250110639
0.4526390013607288
0.4484938669681151
0.4371170302887152
0.4466719994918494
0.4326133770762333
0.4119497305092226
0.4151362745788104
0.5227369538597415
0.508370599899159
0.4931521896352392
0.469666932612237
0.4406281927344131
0.4205824475742188
0.458286293600031
0.5742164852745922
0.6758600863345489
0.6565629107035295
0.6224538036593847
0.5966130829453834
0.6066351874942401
0.627481538553221
0.6450513540665296
0.6341897406458802
0.6164396210316456
0.6038395019908321
0.6124229052503893
0.6205930935790249
0.6251601908118132
0.6281755079646414
0.6298382751511095
0.6314254252583252
0.6332662255473853
0.6347469212860841
0.6357349224105514
0.6356374821948869
0.6336798177090575
0.6171741854780968
0.5745828363564003
0.4648100147654379
0.5301923676939543
0.6540877443606349
0.6008534319755572
0.5336065060571255
0.5990165025070142
0.6044159761177031
0.5858692733550429
0.6358006897725171
0.4749349804831172
0.6203684059303423
0.9887546051541093
0.9807358442754278
0.9736546497176409
0.9661599508804319
0.9584644916832996
0.9501807264852794
0.9417549572569516
0.9325412266917948
0.9234132159218417
0.9130195801256916
0.9023986272141309
0.8919370823084928
0.879540529724798
0.867718048122044
0.8537660215367521
0.8400071773344155
0.8247391230860831
0.8084261206742369
0.7910809700186729
0.7677276503555639
0.7163662114065023
0.6261310200655489
0.5553708723802784
0.5063707093771791
0.4841722189930497
0.4733924316845947
0.4672422462808708
0.4633504760472145
0.4608917699142484
0.4569818692528124
0.4551041414241274
0.4431249573409628
0.4524809941985454
0.4376944836845726
0.4198679350374881
0.4150076372587783
0.5379790225432978
0.5229497360727173
0.5084082562126386
0.4932321992516748
0.469472841532697
0.4407371710465576
0.4205711657305163
0.4582604385760428
0.5742603849514224
0.6755568886871398
0.6565295060165544
0.622948655852095
0.5967319392940152
0.6063786216306547
0.6271435637441636
0.6448345012967847
0.6340514765736607
0.6163497162920422
0.6037333890121919
0.6120478160327935
0.620230598440082
0.6247425926402843
0.627788608448045
0.6294469065151197
0.6309086044781248
0.6324998719029553
0.633994654763802
0.6349945353562544
0.6358372066862242
0.6345052834735093
0.6102931068648323
0.6273318815448402
0.5638375369431017
0.5270908154205854
0.454892424806105
0.6403291108084979
0.6151997847807831
0.5374297082282757
0.5941909744668087
0.6050580221306976
0.5686726904895378
0.6430338193918689
0.5381725740418138
0.6199735124886153
0.995455300017103
0.9874763279744769
0.9800509317312837
0.9729936923590756
0.9654610774040535
0.9576474624934912
0.9493645929248318
0.9408992852450738
0.9316662203347732
0.9225124285001173
0.912102873565416
0.901446883500736
0.8910261845467831
0.8786602060751741
0.8668903374306636
0.8530022130250148
0.839312113093296
0.8241624500962315
0.8078783245472467
0.790567529724431
0.7673259278850981
0.7166416441629556
0.6278816810453001
0.5583001857338699
0.5105074503063691
0.4887052391096391
0.4783884374768591
0.4726478268273303
0.4696114367896108
0.4658216143402979
0.4638531015773556
0.4591148155150914
0.442324908203347
0.4513795878555677
0.4585135162600215
0.439704151307023
0.4158657487394859
0.4370174596470465
0.4143737005013817
0.5535136548648145
0.5380764499826527
0.5229102300023555
0.5084111087245242
0.4931994507246356
0.4696055585657793
0.4405622222994362
0.4205780493502405
0.4580316610272147
0.5739597819038484
0.6756481202159086
0.6564430052755715
0.6222218259538052
0.5960390737879134
0.6060776126246711
0.6267392768021952
0.6442081422633855
0.6339206665715128
0.6162556199170218
0.6036969020148517
0.6116921224192602
0.6197985094053529
0.6242996631907398
0.6273228592269797
0.6290074739589799
0.6303271261550004
0.6317009747571545
0.6331091606390202
0.6348124467529012
0.6364427319595493
0.6361757260233958
0.6209269254685885
0.6284407080077515
0.5731256719483473
0.5521446395189823
0.4786578473781544
0.6441985380569005
0.6024745967233049
0.495596086358951
0.6282381881960651
0.5809851443305182
0.5922512467036329
0.6329140134100929
0.6347401168744642
0.4938576786755769
1.001167133331868
0.9936716811863973
0.9868375323356259
0.9794525027152392
0.9723490634046692
0.9647316687439859
0.9569057521380649
0.9485475913350114
0.9400294842815345
0.9307742775105661
0.9216077045395276
0.9112083805124116
0.9005688588519901
0.8901433051553403
0.8778289898925035
0.8661131898972577
0.8522864619698458
0.8387004801889986
0.8235856015393695
0.8073557493015051
0.7900776494366537
0.7669661316243254
0.7170843628426011
0.6301832993922566
0.561719216237749
0.5152417136155799
0.4941980118484244
0.4842818685945837
0.4795295006029167
0.4752919786606529
0.4658758521668925
0.4734999095616807
0.4673215036151525
0.4664624447352603
0.4475387419708772
0.4559770578532536
0.462647092592111
0.4454312128439276
0.4247950337907729
0.4438535808550582
0.4142870331578717
0.5689406778247336
0.5536531976687076
0.5381077381115417
0.5229191091806255
0.5083975482943748
0.4932460721476971
0.4695727190620951
0.4408129137994127
0.4205479108486057
0.4580043501825175
0.5737637217811579
0.675190831074594
0.6563310057360251
0.6227432164635526
0.5965314519211508
0.605704436006266
0.6262744024631195
0.644206381599016
0.6338652626313227
0.6162641129421589
0.6036709586661329
0.6112894664520959
0.6193412184333293
0.6237680943386924
0.6267977897546423
0.6284565221167733
0.6297074744023254
0.6308019924348113
0.6324748188805756
0.6348632809245668
0.6364416874444209
0.635493414288672
0.6362664250088552
0.6225791846061172
0.6331973612534152
0.6012777554455975
0.5578774291909346
0.5407020750523904
0.6467339274875112
0.6245595288807549
0.489855748669136
0.6343972181816213
0.5713724860909094
0.5885051539070144
0.6417398916677146
0.6411533355769676
0.4792207253571823
1.006819650868895
0.9995008866039699
0.992848521005229
0.9861695103673611
0.9788242423850881
0.9715607486196509
0.963934484205904
0.9560478004593296
0.9476564630646508
0.9391061121888075
0.9298459011213621
0.9206620401033901
0.9102800935002983
0.8996568115504272
0.8892938848414451
0.8770422670658322
0.8653852262961295
0.8516685910542042
0.8381219579643535
0.8230422849938905
0.8068569690325768
0.7895988433608343
0.7665885503922993
0.71763058779448
0.6328023453893173
0.5657885820646346
0.5210090815227355
0.5006147602067779
0.492237228413945
0.4840610401470501
0.4820808324233573
0.4708835630079768
0.4757462159641959
0.4715392790104275
0.4670282468863076
0.4544199893958652
0.4624215196574891
0.464429519074394
0.4499498604912428
0.4421764877583574
0.4210903731609317
0.4498225328170737
0.4267539354098929
0.5857316837295179
0.5690822088075512
0.5537001997435061