/*--------------------------------*- C++ -*----------------------------------*\
| =========                 |                                                 |
| \\      /  F ield         | OpenFOAM: The Open Source CFD Toolbox           |
|  \\    /   O peration     | Version:  v1912                                 |
|   \\  /    A nd           | Website:  www.openfoam.com                      |
|    \\/     M anipulation  |                                                 |
\*---------------------------------------------------------------------------*/
FoamFile
{
    version     2.0;
    format      ascii;
    class       volScalarField;
    location    "6000";
    object      T;
}
// * * * * * * * * * * * * * * * * * * * * * * * * * * * * * * * * * * * * * //

dimensions      [0 0 0 1 0 0 0];


internalField   nonuniform List<scalar> 
18230
(
301.0931467235592
275.7916308944818
301.78717936678
302.2634837561238
142.4497296680803
274.4625936727071
281.498156405058
303.4346616427761
302.9568976375556
175.4854918470427
141.0155944573361
273.0488216842082
201.0117635452823
278.1417869564984
304.3689937719705
303.4964449502316
190.7269059867828
176.318133573696
141.7656510256166
270.7845416854129
166.7158527802817
210.9105586647027
277.7861292763075
305.007681290643
303.9610388478056
192.2951493579647
190.8839066089997
176.6728130986981
142.4451329402969
268.8789550771382
217.5236010869404
168.8200239102066
217.0948029258005
279.048989535353
305.5653153097809
304.2938934554398
193.5208041912098
192.4249703873212
191.0673669112893
177.3727849474011
143.4257149162135
267.419490124347
236.0088639742233
217.0835916841043
169.1575703976188
220.6214042781698
279.9382522001274
305.9323221501342
304.5994231868628
195.0841769983511
193.6507586528215
192.5914405180368
191.2685697448848
178.1035770060326
144.5649604156608
265.7751402691093
238.1641512109269
235.5896562961165
217.3220419268393
168.7746151769635
221.6229629384565
281.17383888556
306.2038575301359
304.7920794253803
196.8274733662679
195.2285792289882
193.8205970413628
192.7365844131516
191.4256358753187
178.7434958171412
145.8813330391909
263.9535185365775
239.5587133777591
237.6924018196959
235.3887471510031
217.7369947699536
169.1797411243648
221.6338403568018
282.2322439389705
306.3556006783739
304.9831905204079
198.77078051056
196.9780825220222
195.395458893098
193.9890544229866
192.8823247035855
191.6057949146345
179.6690613025137
147.2686124200536
261.428953312298
239.7816307622917
239.1895762996377
237.5709138074972
235.3314206093627
217.893489534284
169.7279425447918
221.4905725863678
283.1251901013771
306.4740007289282
305.0112537395703
201.0462214918646
198.9456347373191
197.1727902244001
195.5459829543693
194.1147759268569
193.0303404256281
191.7571964133801
180.5098287709294
148.8468499302037
258.2186441815919
239.6383404663851
239.3224805290334
238.9526519982591
237.4142864398933
235.1661858166951
218.3582550458965
170.707450188753
220.7407474159036
283.8053259913817
306.55708467855
304.3079621476303
203.4319643021493
201.2470413839241
199.1146223253464
197.2937221737955
195.687982446686
194.2560873554362
193.1801681356601
191.9579904533901
181.5000948301533
150.589689629511
254.9895119265588
239.2936462218535
239.1812053041611
239.1567791967418
238.7873341425334
237.2984233467504
235.0704909280715
218.6283178565472
172.0021317335976
218.578099448442
284.6466762798571
306.5934045271225
302.7817571681026
207.2173972751926
203.6864495347114
201.4032981534201
199.2490745524777
197.4362559832135
195.8285310112691
194.4063866515
193.3332033104003
192.1567652825017
182.4398861963375
152.4742554782702
251.2063416537378
238.7990569015862
238.8553337909029
238.9943345766539
239.0227725697761
238.6550925141064
237.1706129980672
234.9803414511694
219.0491077849893
173.2598135540814
216.0197606244849
285.3655440799325
306.603393035983
300.2749866892179
215.9162984456074
207.566079313654
203.7996136629451
201.5220565382955
199.3830129832646
197.5774942620204
195.9873351816285
194.5598012797986
193.5098772913692
192.3996019414473
183.4719921334857
154.5565941079561
247.2168294194603
238.5195658611479
238.355074576316
238.667588221486
238.8461350283094
238.8836306948125
238.5122439057203
237.048087760675
234.901209256642
219.4986473361102
174.9729370151257
212.3885529873579
286.5472481978152
306.6135734088386
296.9310897711733
227.6175967577143
216.2544625068174
207.6611257555244
203.9143775012405
201.6514548812928
199.5177721165982
197.7221690047802
196.1434786456598
194.7427547052655
193.716118207271
192.6535723557619
184.6068373366437
156.814223870406
243.1042570596819
237.9701041693523
238.0674594900727
238.176721297022
238.5243747523243
238.709885838642
238.7488382314033
238.3867743902337
236.9142391802081
234.7539660156526
220.0502502942248
177.004325184815
207.9073961636654
287.0773198112748
306.6728441994683
293.0217206203698
241.9435863464562
227.8723747000421
216.3489904881613
207.7885567923849
204.0508600477987
201.778224556137
199.6810171570405
197.8958664273324
196.3331908092378
194.9456890742896
193.9433988332525
192.9390651635239
185.7823196699247
159.1640254092536
238.3424391364425
237.172565131293
237.5233307626438
237.899152244784
238.0376771559143
238.3886110490405
238.5665158663129
238.6021340849386
238.2237312994544
236.7997685543208
234.723618555691
220.5566626269175
179.1319243179556
201.9636546162932
285.9129102971615
306.7965401769319
289.5278062744737
248.9843775014949
242.1369737360182
228.0597804761696
216.5236922338675
207.876018901266
204.1776334069693
201.9414374941265
199.8417348055285
198.0808663576843
196.5421293638599
195.1784421979296
194.1964335153094
193.2366830621215
187.015954092125
161.6527159137022
233.1363614223292
235.7966823300494
236.7207462422122
237.3600309442773
237.7523157997305
237.9012729219357
238.2469246079652
238.4299373046172
238.458501701458
238.098711983059
236.6683488519079
234.6122973247988
221.2481688138553
181.1623752764579
194.61771917894
283.0709092694698
306.9348621141945
286.8466139427102
251.9477795518934
249.3295996953291
242.3472121992264
228.1482442252847
216.687900899436
208.0358368760695
204.3303897375222
202.0941657555553
200.0356045176103
198.301001978645
196.7831970608417
195.4356043656607
194.4647246853152
193.5602264778666
188.1842313102166
164.1238891731109
227.9262718233125
234.0876179579859
235.3543678291532
236.5534322376702
237.2197673506397
237.6291432154648
237.7659724428185
238.1065461738305
238.2827119402147
238.3073234277852
237.9371437325561
236.5803430270735
234.6105936264726
221.920420879233
182.8617900873189
187.8218220058506
279.6050700986137
306.6903963575188
284.8366411834352
254.0895108193698
252.2447345728611
249.4515935345414
242.5011992701874
228.3423417891308
216.8102594326709
208.1955080314597
204.4957241972156
202.2920513270798
200.2512875102675
198.5354136680085
197.0447617046151
195.7079675547495
194.7482494421797
193.8773612139466
189.3145036789675
166.6048153855312
222.812079024866
235.7192628090521
233.6521495970111
235.1711605673792
236.414760761948
237.0862908658738
237.4787954201353
237.6268874114317
237.9634975139733
238.1389784542427
238.1553625923032
237.82311723967
236.4824893119267
234.5678619977388
222.7348403989587
184.7162233394781
182.2571580247335
274.4242601140977
304.045828970264
283.0097729766036
256.078013808399
254.396489627821
252.4048623823502
249.590733954182
242.6359096556603
228.4378138320121
216.9632177935875
208.3784945283851
204.6929855225443
202.4923378522966
200.4908178995969
198.8003107474613
197.3272198318828
195.9984610162633
195.0359049441768
194.2092877370622
190.3658459568883
169.0253402631321
218.0040155088334
238.1244646972057
235.2557990291901
233.501603195968
235.0252498738137
236.2773346731474
236.9427450694818
237.3409119701847
237.4902004498453
237.8151548681608
237.9924138816895
238.0170053915724
237.7134085210045
236.4646888101531
234.6051122196471
223.5680274027609
187.1734990234628
177.4383467677534
268.3903299230004
300.8346553059336
281.3915305051842
257.8811692601312
256.360372245298
254.5566126064585
252.5576724188056
249.7275620861577
242.8051056938637
228.7210843472238
217.16924893182
208.5687783722406
204.8986435713247
202.7328587751423
200.7535943074695
199.0818551202196
197.6222277722302
196.2965730406001
195.3310500117772
194.526541282268
191.3351118357018
171.414967734477
213.6673797474586
239.5749635965049
237.7351728004016
235.0996174845736
233.372299968328
234.9112074840232
236.1404951508949
236.8074304638745
237.1950628635069
237.3443657935032
237.6753926453801
237.8533394698313
237.8824086255603
237.6053981989057
236.4331473710501
234.6943562352537
224.4601431458617
191.0924172272917
175.7402746698146
262.205549310649
297.7356180065392
280.7300598727659
259.45133658699
258.1441918824755
256.5221099780273
254.7128052329725
252.716024792732
249.9278520670891
242.9631556101592
228.8394164949252
217.3974090381965
208.8079875547415
205.1484810957858
202.9744336162703
201.0338727906673
199.3728635323631
197.9294125262612
196.6070006841061
195.634266772075
194.8709608067731
192.2578103729992
173.7318022905948
210.1828924509756
236.8393002084926
239.1481659582289
237.5795615125525
234.9689611107968
233.2596468470699
234.7656125016366
236.0087184192858
236.6635730582083
237.0633879651604
237.1994285300025
237.5241268595489
237.7273666507844
237.8089659116449
237.5617701654833
236.4566755483661
234.8776325998851
225.4184804493084
195.4833863326691
175.8993936513288
256.4638442073107
295.0828205829808
280.4237822396956
260.8883347313945
259.7178319139974
258.3013047233217
256.6586007882842
254.8534428897521
252.8836422028489
250.1092163778213
243.2018456696765
229.0995850318645
217.5986718796956
209.0554297057277
205.3860218733601
203.2444571045877
201.3230139048287
199.6786840028261
198.2439178898318
196.9390958254448
195.9609980690548
195.2592236108458
193.1109152275406
175.9836077658143
207.5825821822435
233.4646662618161
236.3822510776987
239.0140866272642
237.4560623956163
234.8455899427872
233.1316363263862
234.6338921343906
235.8661108867454
236.529376255581
236.9156691653012
237.0621509590621
237.4130711304458
237.615262568586
237.7300520005524
237.5350658920036
236.5324176639357
235.0512319067882
226.4610857897196
199.5281074131579
176.9966508727032
251.4640188028359
292.867742450225
279.6678048398272
262.2377157016219
261.2150153814292
259.8447315757884
258.4356565857585
256.8080904340295
255.026351917436
253.0696349752685
250.3099792892121
243.3775400243798
229.344410486887
217.8795482187203
209.329576096952
205.6645887334629
203.5097393378702
201.6239800866902
199.9880011850925
198.5762217062609
197.3023103290975
196.3276822997737
195.6564241634063
193.9086551039448
178.1757185469907
205.9645591337813
231.8736001906743
232.9802976404857
236.28749736746
238.9007468884805
237.3573872835321
234.7397920931553
233.0125378429114
234.5070902482015
235.7364185474568
236.3924685251179
236.7924213424921
236.9248558851445
237.2903220256077
237.552985171057
237.6898327353643
237.5506558033817
236.6490165294035
235.3336998085381
227.4821181271622
203.1694421238215
178.6638013713602
247.3632028732926
290.9311603990624
278.0433027792544
263.3949902290682
262.4931358991124
261.3783979978879
259.9860729072
258.5839809139054
256.9782526502781
255.1988990610608
253.2740608463932
250.5174510631332
243.6496069006005
229.5936032994056
218.1437038052578
209.5961762169765
205.9251745944506
203.79697686269
201.9204595978519
200.3148614980792
198.9349586890174
197.7284329432557
196.7496205124693
196.0882212955624
194.6435182082602
180.3449014589533
205.6617699322878
235.0959923738227
231.3106523267487
232.8467057140469
236.124267326689
238.795973570657
237.2364021047442
234.6293664594865
232.8902761210978
234.3712019816733
235.6033144844283
236.2635442084152
236.6622037205519
236.8466829028334
237.2238901411611
237.5106525590156
237.6855702578166
237.6006872897122
236.8185398982991
235.5872317851094
228.5042022385268
206.5409053232362
180.7313742221236
244.3752466081011
289.1741247587066
275.667089428506
264.5654334971095
263.7921067055482
262.6692214264931
261.5347956288993
260.1420343254284
258.7599252286228
257.1650670131122
255.4014300542458
253.487810270876
250.7388802105617
243.8674098982108
229.8528613477199
218.422700329037
209.8937357876372
206.2199698699368
204.0690139917687
202.2333209396647
200.6626720072397
199.3530849409574
198.2103543166158
197.2448689149134
196.5574337002571
195.3400440145074
182.6230722702433
206.9064471738324
240.0368118170791
234.719550132938
231.186308552051
232.7413079802839
236.0216985018041
238.6865636825276
237.1254242867223
234.5081754570577
232.7814036326902
234.253264410662
235.4833854805145
236.14930975305
236.5601033365387
236.7791690343344
237.1759722011078
237.5072443089431
237.714187423196
237.7012396671978
236.9943256536405
235.8742602105601
229.4997972503392
209.6721033940482
183.0730713853511
242.417018682249
287.4500494521764
272.7891920163824
265.690477021919
264.9562027398492
263.9900321341515
262.8305834487488
261.6992030074521
260.3336561238194
258.9515204805475
257.3659815432711
255.6194958346923
253.7064091106404
250.9773061256725
244.1275574806668
230.1424875759164
218.6993795481241
210.1794335531808
206.4859104622481
204.3598157761297
202.5594293692815
201.0723296428594
199.8222557271461
198.7649130768121
197.8037109033352
197.083316277449
196.0045845764708
184.7489894997645
209.5524769076635
242.6417222266931
239.7667671669656
234.6424340554317
231.0744040896381
232.6607445001913
235.9074922037253
238.5886601456441
237.0312574000411
234.4046155970754
232.6772582068966
234.1335034598843
235.3722340032295
236.0559670307348
236.4990092460905
236.7477249061325
237.1670238421444
237.53475606695
237.7666786289605
237.8054326416682
237.1742582200833
236.1416679068671
230.4350261060239
212.5475777028927
185.6599231526545
241.3339650854421
285.7872730812003
269.8914726585844
266.7804673290308
266.075241427466
265.1525298788769
264.1762971004376
263.0169637642782
261.8926187297907
260.5369749091707
259.1681266466529
257.5887076799633
255.8490375316451
253.9480734851104
251.2123677043789
244.3742940349787
230.4330379983256
219.0084434499063
210.4888605636178
206.7937326783171
204.6468898782632
202.944475639781
201.5242768639765
200.3623546506117
199.3775722245809
198.4513158893985
197.690725253348
196.6638351409989
186.8711583830653
213.0358463993169
226.2898504761422
242.2362656019897
239.6506711000271
234.5406430323737
230.9880485562008
232.5631312182939
235.8323894320702
238.4988257536209
236.9400026046945
234.3118947733746
232.5890846799596
234.0365605907366
235.2885978943085
236.0032604009255
236.4664281388796
236.748006943352
237.1874636583734
237.5904026006723
237.8209588141486
237.8969395931343
237.345953522003
236.4084671902507
231.2901947134966
215.1367549402335
188.3863989625566
241.2142272091661
284.0791321336331
266.9674204807611
267.7401227508227
267.1721961511516
266.2774570893287
265.3442371916739
264.3629814311033
263.2249233006153
262.109090812156
260.760443195068
259.3923349491786
257.829176327154
256.086554962676
254.1896152767755
251.4586530079182
244.6206300015758
230.709184308648
219.2842588352829
210.782654318514
207.0801624514242
205.0018707474139
203.3616753169497
202.0448464388627
200.9512892778403
200.0707542553463
199.1812992649118
198.3777154991437
197.3492311707494
188.8546234083331
216.8016876478607
206.9872896258054
226.1257142991603
242.2472079007776
239.5772375022403
234.5229218181379
230.8995771403346
232.504069309441
235.7425174063333
238.4254784624268
236.8631291021132
234.2359738562529
232.5197902942874
233.9632077755023
235.2429926681629
235.9741158473386
236.4690334511557
236.781443143335
237.2330510564219
237.6451372718898
237.9075189247461
237.9700782560091
237.5143537306387
236.6617998396387
232.0701615527332
217.4419431002114
191.2124292179955
242.090758021841
282.2960724373526
264.4633514128489
268.6854800726547
268.133385212885
267.36758356708
266.4608962596192
265.5265125100032
264.5795774048397
263.4373398263307
262.3381610793868
260.9991394788631
259.636079891077
258.0683030063821
256.3362062299731
254.4295622405134
251.6913783907159
244.8718300272101
230.9902931083338
219.586273747079
211.149767465516
207.4513346066349
205.378433715283
203.8441814296833
202.6034850175529
201.6194807305348
200.8209820093758
200.0149582484288
199.1487259491329
198.0831765887779
190.5820553553082
220.3312475475813
199.9409099595332
206.9029558010473
226.0556962906008
242.2111227292416
239.5189324856755
234.4426537689411
230.8325075788943
232.4486837732953
235.6965636779886
238.3727748424649
236.8081498993051
234.1841594640807
232.4723471063126
233.9310565534479
235.2223389899835
235.9778850029803
236.502367990326
236.8408192967857
237.2785104226991
237.6781914242648
237.8894737960644
238.0216248682126
237.660554459545
236.90811501241
232.7699300356394
219.4417867035448
194.5118516693761
242.5077103697293
280.2862808101511
258.263516050515
269.5637013053723
269.0884054032013
268.3325214970413
267.5640218663517
266.6597879454106
265.7320139254605
264.7939686049712
263.6744526159966
262.5815714295654
261.2440747397847
259.8892178728842
258.3220136081773
256.5846124758298
254.6702292452532
251.9171121329163
245.1088802491491
231.2773586328691
219.91215257937
211.5192964277455
207.8414295317906
205.8272724714927
204.3550761188352
203.2361756264934
202.3393587486451
201.6512863390392
200.9341197010624
200.0023061294609
198.9286975392702
192.1969200923902
217.9283796212591
203.5554606821114
199.8061862658901
206.7882303792975
225.9626343240974
242.1712957449796
239.4965269592684
234.4322691646789
230.7826182902682
232.4112264331737
235.6495554972298
238.341024189782
236.7822703237903
234.1685174965382
232.460372965638
233.9205900603379
235.2307281051253
236.0117002929949
236.5601246815775
236.900231756195
237.3115087503445
237.7133866804107
237.9212917988048
238.0609121110673
237.7958920484385
237.1393003760967
233.3871068129263
221.1211427478834
198.4650557092194
241.0423393482195
279.2124945569319
268.5002154954829
237.4379413404185
270.4020080813391
269.9804696998655
269.2957171090947
268.5283752414214
267.7524595126046
266.8634954384626
265.956044166196
265.0326139978404
263.9196910408656
262.8328549956097
261.4942906063343
260.1435011874812
258.5724691066408
256.8259571180967
254.8999724362492
252.1304551921008
245.3164579859287
231.5763116333935
220.2660279432081
211.9793622093349
208.3020898796927
206.3052263988578
204.9383240972433
203.9131503296236
203.142355908362
202.544433682747
201.909559841628
200.9694974882792
199.7819959880201
192.7931081185521
203.0504702293409
208.7826872378458
203.4474972574594
199.8133806030487
206.7360310701499
225.9591030641865
242.190745435728
239.4878338223658
234.4290061613635
230.7536061050445
232.3958976571037
235.6267387580828
238.3327893190608
236.7889672655579
234.1834327561313
232.4967460438702
233.9430273313744
235.2692569280908
236.0670438021274
236.6172840543607
236.9470318802379
237.3249487646889
237.7189898865407
237.9455946663588
238.08039015629
237.9026540106656
237.3560286697815
233.9186462827114
222.5157974366176
203.4928565743184
237.7602931695132
265.4005518129856
267.9234483754954
237.1030848443517
271.1987331307527
270.8298591494388
270.1901987692905
269.4932790197166
268.7289928288994
267.9672037192643
267.0787086551111
266.1867185567878
265.2729769172753
264.1698367502007
263.0848145611023
261.7515045246502
260.3953187741181
258.8194944668449
257.0591823911274
255.1124837962369
252.327672355104
245.5234424688232
231.9112373440693
220.6674593083326
212.4569635204637
208.7995223642151
206.8608203676725
205.5707731300017
204.6705752863518
204.005151315278
203.5015963965875
202.9531681052592
201.9430223262175
200.9656168306884
196.3338724531782
201.0056106713449
212.8735113451785
208.6929699807197
203.4283566667465
199.804037091831
206.8173787012915
225.8795936466045
242.1702604648767
239.4693860942306
234.4226308398363
230.7499862077259
232.3844403640898
235.6254995686552
238.339446072987
236.8232424279577
234.2363554636315
232.5772697208902
233.9906610598392
235.3263674705545
236.1209898215245
236.6605311483499
236.9791393109341
237.3277112142123
237.7039700965491
237.9437441331771
238.0877896799565
237.9916332594001
237.5354286251938
234.3729979109569
223.4983514791047
203.2574800521537
235.88725132847
228.613744482585
271.4499919485537
272.8338043714625
252.6412969809403
223.8902675714739
241.3783543887083
271.9958761149221
271.6528083386391
271.043511917246
270.3854446914506
269.6904537595972
268.9440589947997
268.1826215197796
267.3158455533848
266.4355757348056
265.527751182225
264.4273429561742
263.3438849234694
262.0036235019837
260.6437653014721
259.0518010647575
257.275017161374
255.3116855604928
252.4942758277562
245.7294318191393
232.2580128934194
221.1084631202641
213.0221266503119
209.3697768455098
207.4808690872736
206.2919828868315
205.4991609341722
204.9535528822515
204.5377760152317
203.9830733210464
203.238485322514
202.2506011880235
198.8212019716846
199.2185114717585
215.3875832396633
212.7884070033577
208.6652800766234
203.4009951862659
199.812002165794
206.7025151198879
225.9035784699982
242.145387106341
239.4998756844828
234.4623117002176
230.7850442626483
232.3975601106164
235.6502815495096
238.3578569442474
236.8875675535548
234.3229520802479
232.6675984523914
234.0480165444781
235.3813833572028
236.159070612942
236.6864235393292
236.9991745366307
237.3193357920023
237.671913931209
237.9220407541309
238.1022401086823
238.0226903298639
237.6555802951607
234.6644730625505
223.7266266286184
203.4010828425583
218.5330274434837
236.888657741784
232.1706337360806
259.5752018892382
274.812450281602
251.875755582771
225.4922355045137
239.0513517765573
272.8098800324203
272.4225170925819
271.860064270312
271.2362712892593
270.5786265176954
269.9027432873011
269.1622809005387
268.4199356192576
267.5629070481572
266.6857366292988
265.7785963671453
264.6843816967889
263.5978910788592
262.2553075393267
260.8781670221865
259.2722957076439
257.4746491370872
255.4738198160129
252.6486794302709
245.9366081796603
232.6300858503858
221.6006944214975
213.6362362872217
210.0177606496066
208.2031832370725
207.1084292500645
206.4362050169998
205.9887438636472
205.5580829776177
205.1978672095762
203.161962536927
204.9945661121621
202.5210895569694
198.4141876940874
198.9840525459115
217.7652993923263
215.3134968590178
212.781526012951
208.6957277600903
203.4482933655191
199.8032909592305
206.7377186645818
225.8822721440832
242.170640183424
239.5136725422051
234.507911811987
230.8176687563528
232.4365046976224
235.7002557926442
238.3936534222392
236.9862419121052
234.409984003936
232.7673224135981
234.1026445686209
235.4179351372077
236.1782609260451
236.6993608775926
237.006115201047
237.2983053041549
237.6182076761958
237.8735078121103
238.0515499643909
238.0492972051749
237.657019580539
235.0049926335478
228.2580451090896
209.9689703724827
221.3361132887278
240.0627171900652
236.5323407466842
223.3767511400158
264.7818087999935
262.0840496127519
273.0212193385915
242.1095303286387
210.3606881881483
236.7401703358919
273.4707530984255
273.1633964416193
272.6359546120507
272.054004827937
271.4367808160175
270.798772815423
270.1195693435024
269.401855496932
268.6665943407843
267.8207976172361
266.9441258155989
266.0419043212225
264.9408515202759
263.8487921593996
262.4913155197375
261.0962577393141
259.4702506578034
257.6408965115915
255.6296737289213
252.7933390081137
246.1446075459707
233.0427833418765
222.1509231396635
214.3542712424995
210.7796594927476
209.0403107099439
208.0578322370652
207.4706757579645
207.0605539810304
206.8043539757358
206.581714536399
204.5037535990014
206.2228553492605
203.577750914021
200.1560159305986
199.3652656692753
220.1837205520395
217.6905464333098
215.3136935414194
212.7714729944752
208.6659844910342
203.4144014912889
199.8125177516056
206.7070371252775
225.9287501596915
242.1964148674325
239.5671069941554
234.5860492796463
230.9104065186062
232.5069643646401
235.7643139094548
238.4605444492183
237.0911382566151
234.524263776657
232.8444409977568
234.1348717455387
235.435076988162
236.1837409503027
236.6981009136336
237.0005785072295
237.2646391522595
237.5468164194204
237.8018508865643
238.0588965288392
237.9803095672953
237.4576157013508
233.8442018138357
236.2839027339884
226.5151596556439
220.6323633081176
208.3969879976961
241.3942740300221
242.6592258613204
222.649729864917
259.0879340412523
256.8812215063151
271.7464663281391
240.1026535140351
225.2001403102588
236.3361871092879
273.9137793017838
273.8198582209155
273.3626163004109
272.8129605116118
272.2444917762924
271.6494075524601
271.0167820814712
270.3550724937067
269.6488592246191
268.9218949700118
268.0798938264988
267.203069831073
266.294016363107
265.1927696256881
264.0859214921134
262.710043922265
261.2985063911811
259.637935037267
257.7960011574482
255.7730926275027
252.9233461775913
246.3537213302265
233.4789901932875
222.7649814366008
215.1932811203076
211.6881800883321
210.0207302462483
209.1268338644441
208.623800417358
208.320881620069
208.2139287498144
207.4282003317053
204.4061866904693
206.0745232961585
207.3656538342603
203.9908882802873
199.7092747813546
203.5189906009026
199.147054981985
222.6435073748802
220.1306057709754
217.6915558487385
215.3079465012821
212.7770692761517
208.6849762006045
203.4509990606241
199.8199029846861
206.7015663911253
225.9160894344487
242.2159465906234
239.6335524820299
234.6492197624459
230.9941073018624
232.5762879754162
235.8500011722252
238.5468473423485
237.210540868427
234.6238935336848
232.9077719044527
234.1507512697066
235.4375523413248
236.1735274859557
236.6816003278788
236.9782826636172
237.2180837360936
237.457874259511
237.666461252211
237.7932858104245
237.7147637620281
237.5703311427089
235.2031016664667
236.3500139153982
227.8602411748798
224.5019122118518
211.8903558152041
240.6366706182878
234.2772323315083
215.7350860586899
245.3492702836074
266.5561751716251
264.6064036891137
244.2124524311801
239.2680190224645
215.5074595834151
274.6356487380112
274.3905661645869
273.9966718898037
273.5279386876106
272.993411600886
272.4615178383265
271.8712864144981
271.2564613357256
270.6029982906481
269.9075690966012
269.1803122052733
268.3444657997786
267.4643827178052
266.5473121742438
265.4307555617866
264.3057924330062
262.9114588436897
261.4642385788039
259.7925328969857
257.9401333480648
255.9049478440785
253.0491548206843
246.5773932023127
233.9749618119302
223.4606287738348
216.1199861918574
212.7387711070783
211.1629520370523
210.3720897548731
210.1159545089085
208.5257008665539
209.8854750189453
208.9358453290608
208.7843714791784
205.4112338584157
206.957945421634
208.1564490013631
205.0069243957369
201.0967243279366
204.6209935821028
199.0644955429605
224.992905703424
222.5732903630053
220.1356113981213
217.6905085644353
215.3166915090637
212.789652082911
208.7007769460853
203.4547731148569
199.839684924893
206.6926228816753
225.9559189965097
242.2747063634087
239.7176311181396
234.7631439310547
231.1231115533801
232.6770431918584
235.9345412334586
238.6253980438765
237.3128932977667
234.7255909857803
232.9715818921019
234.1549800639516
235.4243759510777
236.1465166281675
236.6461341700092
236.936680101465
237.1580603263068
237.3457520760969
237.4394375891578
237.4421524504546
237.6112269422166
237.4601757499202
237.5345065451277
235.4028459257512
237.0545968359971
232.1109442480228
225.4172462434486
222.6455234633258
240.0519287344663
238.093792278349
216.3335474621976
242.1522127407727
265.9617766523572
261.435846684505
240.7319937453335
237.0202219662685
212.0423556150974
275.2217144965453
275.0911199532314
274.631436361391
274.1831550933918
273.7054138576898
273.2032842893638
272.6742071444877
272.1062403398941
271.4983757990458
270.8612726001643
270.1639421276422
269.4470766428889
268.5997245136762
267.7175027374489
266.7871483314766
265.6522703281872
264.508843278561
263.0788420733905
261.6211370269631
259.9366925536157
258.0730190037164
256.0233952037304
253.1657310951357
246.8035606647765
234.5193821766723
224.241823334719
217.1962928252026
213.9548335150758
212.5773554229533
211.6165513815327
211.4689360376744
209.5732478270242
210.4922880217779
209.7011037229337
208.9418763759899
206.6625698910624
208.103945994282
208.4808017423371
205.7574303089793
204.228224681164
200.3102647236331
205.6462582531219
201.9531618119348
227.5411333332727
224.9667835299116
222.6014559735312
220.1275737622838
217.7015099461673
215.3214363246514
212.7908492651517
208.7324107451072
203.4909185669596
199.8564195156092
206.6866450631576
225.992156307241
242.3201545202484
239.8311516581227
234.8820260055786
231.2619860857877
232.7741142087362
236.0014417574732
238.7299820915687
237.4172509044247
234.8058002079307
233.0300433126644
234.1479436793971
235.3935357978575
236.0988364357606
236.5890069921336
236.8722913893157
237.0652114451638
237.1105623775177
237.0761072886785
237.0996184021853
237.4571429179676
237.3455222853493
237.4312213228796
236.5216755844296
237.1290066706469
232.8624401103718
229.4999567395442
226.5367378987621
239.9897549093093
232.4738027486882
220.3568441812242
215.3637473760338
242.8401857678561
255.8252690851468
266.0126274416897
246.9033311189017
238.9307048832123
238.2981090503372
229.9812428629969
275.836390349908
275.6939767922887
275.3179950562964
274.8452840986871
274.381708962462
273.9147934323794
273.4254983255515
272.9101710575459
272.3512813048376
271.7585088019671
271.1228833224477
270.4301936126326
269.7094655895039
268.8547522922654
267.9591304654144
267.0097207988137
265.8570324674802
264.6769737758732
263.2364347620887
261.76547965684
260.0685290121873
258.1942313446464
256.1304870564413
253.2765023002869
247.0371711423004
235.1220827984791
225.155362798794
218.3986718907106
215.4272826307933
213.9395883802235
213.282202190098
212.6370300119875
211.9733515769066
210.7899981021373
209.7675715520272
207.406234962933
208.6391394027471
209.4130557468974
207.0326497313845
205.4035058520865
201.883784087504