/*--------------------------------*- C++ -*----------------------------------*\
| =========                 |                                                 |
| \\      /  F ield         | OpenFOAM: The Open Source CFD Toolbox           |
|  \\    /   O peration     | Version:  v1912                                 |
|   \\  /    A nd           | Website:  www.openfoam.com                      |
|    \\/     M anipulation  |                                                 |
\*---------------------------------------------------------------------------*/
FoamFile
{
    version     2.0;
    format      ascii;
    class       volVectorField;
    location    "6000";
    object      U;
}
// * * * * * * * * * * * * * * * * * * * * * * * * * * * * * * * * * * * * * //

dimensions      [0 1 -1 0 0 0 0];


internalField   nonuniform List<vector> 
18230
(
(-78.97203107364163 -32.90350646520907 1.645579946886997e-13)
(106.6634718916762 2.487831872173669 5.802448710515558e-14)
(-21.01395602625269 -17.29230265147506 1.695686091434945e-13)
(-71.04931381066687 -29.64926467197284 1.596652161684383e-13)
(511.9011447464757 -163.1386622865069 3.263539744883354e-14)
(140.1218001408602 2.194373781081752 6.791514750721371e-14)
(-20.18665597229975 -35.62886804158139 1.601817669119058e-13)
(-17.44507567300134 -13.85630840079646 1.550041471903122e-13)
(-67.39159124823988 -28.51299613064468 1.626543527445586e-13)
(374.8028793170989 -268.6745620618892 3.524620163065239e-14)
(523.329477217558 -168.5883586968032 5.761960387417104e-14)
(150.4801605663603 -2.82486087066956 7.194802013113723e-14)
(-83.4320344449854 -387.4596818009914 1.633364287742851e-13)
(-13.28485354133408 -24.5701862757654 1.599453988560378e-13)
(-13.27941429201779 -9.601818860887501 1.636650658400678e-13)
(-62.75288936409439 -26.77915186893631 1.61340527188791e-13)
(322.6790092002672 -281.6785960446184 3.284590573949052e-14)
(384.403622827219 -273.4533440326329 7.600504910097553e-14)
(520.8016152723917 -175.4713765366414 6.468588867587569e-14)
(165.7509088728559 -6.895356538263854 7.398978325154879e-14)
(60.35707136841557 -483.7788895679518 1.634127073947762e-13)
(-77.0093389180268 -369.0779796162628 1.685403049181403e-13)
(-7.342571427492828 -16.20764219169581 1.615026682245522e-13)
(-9.987379442797344 -5.826596058218288 1.623746024532735e-13)
(-59.56564073783553 -25.77829134404498 1.633733659442708e-13)
(320.5578220104321 -282.1518754144836 3.059689770902615e-14)
(334.5440023289587 -288.2634216344117 7.998139770831741e-14)
(380.0143872227559 -272.9435127905145 6.727330449897411e-14)
(519.24405609395 -180.1709242179643 7.020831289185013e-14)
(177.0087697105985 -11.4785192358547 7.599188365868023e-14)
(165.5174675626038 -336.2014498338013 1.651108529215875e-13)
(61.48095537812343 -483.4997275347691 1.747630593434984e-13)
(-68.80402031369232 -361.0158029878945 1.717504148576042e-13)
(-2.100492403193548 -9.74327161780298 1.626676095961217e-13)
(-9.174830358176042 -3.864724478047481 1.644931452667285e-13)
(-55.74452821722768 -24.4732095317647 1.619247271789369e-13)
(316.9336213423076 -283.2823133816894 2.903491515886956e-14)
(332.0790517984221 -291.6051713549109 8.070378537813077e-14)
(333.3097343758325 -287.7659417616298 6.394412604120601e-14)
(381.4841708631039 -275.048115917891 8.137025493923236e-14)
(516.5098807187723 -186.6976780834725 7.460649364027555e-14)
(186.5644076873058 -17.73915815159761 7.764638044260608e-14)
(166.2811758486157 -260.9350974536652 1.646238240119697e-13)
(162.0788103122697 -332.1759636449799 1.79586124821309e-13)
(65.82987933274005 -482.3296218057044 1.770241271430773e-13)
(-61.04594559368178 -354.6468432064981 1.739505423517715e-13)
(-0.6127135246914509 -10.19450098135459 1.641606536527716e-13)
(-7.047817529524099 -0.7490951797848686 1.639614538397979e-13)
(-52.48649890219121 -23.43150709574433 1.626244983214047e-13)
(311.2229934449939 -283.624984919526 2.569439934191085e-14)
(327.8952270180795 -292.5237405178137 8.479640993588922e-14)
(327.1988925488077 -288.1821283434534 6.36234913027026e-14)
(336.8738084802891 -290.9308598603978 8.802019781711543e-14)
(379.4547747665181 -275.7539487883589 8.228289322083715e-14)
(513.3172254945982 -192.8091378542564 7.942384479704708e-14)
(194.5524660346075 -25.34116143241648 7.943300446673584e-14)
(166.5402708831079 -260.0656011609973 1.65199040113368e-13)
(169.4000520032173 -269.2001241367417 1.813759957143696e-13)
(161.8059070050294 -330.4275262885861 1.76286241115332e-13)
(67.64353931869532 -483.301702877383 1.800897174634045e-13)
(-52.83965844582759 -354.8852252217497 1.758443418270867e-13)
(1.001423725982994 -9.79374261389099 1.655238683958699e-13)
(-6.048219516121964 1.697011086102677 1.644533930226857e-13)
(-48.31846146436679 -22.21889734795187 1.618890621912893e-13)
(304.7191075811436 -283.9925991280381 2.015230852377897e-14)
(322.2579635333774 -293.1756105328865 8.581522514693274e-14)
(323.1569650848253 -289.1335383976797 6.332272546835922e-14)
(331.7867433713201 -291.9554525044622 8.847425572858101e-14)
(335.5986861558992 -290.0605742562055 8.161043045270231e-14)
(379.2490425349295 -277.3542973054811 9.046706889928235e-14)
(509.46445860533 -199.4783065233729 8.385105332845472e-14)
(202.6642816711141 -34.4240419757066 8.122022561602292e-14)
(164.7956887440753 -253.369011579515 1.655245133306997e-13)
(167.9071510631729 -262.4699862725683 1.810286197344631e-13)
(169.7525664308256 -269.4568467846875 1.749620901813901e-13)
(163.0356973074827 -331.3149784267969 1.840594105391406e-13)
(71.19685431906548 -481.3649562075895 1.806657038532683e-13)
(-44.17102791351713 -356.9660621910867 1.774099191011623e-13)
(3.026142850995821 -10.37889334036373 1.666485783809616e-13)
(-5.53615579561786 4.051649158259574 1.643217191502313e-13)
(-43.29075038301928 -20.66640032724334 1.612207948176903e-13)
(298.0415479112468 -284.5986326821383 1.921813151382568e-14)
(315.9420105959869 -293.7610174260435 8.644037643919912e-14)
(317.5741852549593 -289.8678013347222 6.350714559871095e-14)
(327.8357070395928 -293.0191042076499 9.100859707192503e-14)
(330.2721452617581 -290.758289559569 8.152237587960531e-14)
(337.337726081039 -291.7437127363416 9.422211466370882e-14)
(376.7044150621692 -278.4778078933314 9.216478096055411e-14)
(505.1087761306592 -206.4021273092065 8.792542669748108e-14)
(212.7262127211788 -44.99609759729177 8.28909022481933e-14)
(163.6241064190715 -252.3024976347401 1.630998659088234e-13)
(166.7859299854697 -257.4319082955274 1.814660062585838e-13)
(167.3854303884216 -261.5884581962939 1.743446375175608e-13)
(171.0586647190758 -271.6227118952528 1.853332444868888e-13)
(163.2389616688012 -330.0315955962902 1.807609957462244e-13)
(74.45374719983322 -480.1567109873548 1.84044967199914e-13)
(-33.99031656898639 -359.0024194615097 1.790539915792223e-13)
(3.293397447285872 -14.77060746242522 1.677392774340106e-13)
(-5.507984165082474 5.687953409386357 1.643657969273419e-13)
(-35.1977805874716 -18.1590268907211 1.584628906261754e-13)
(290.1673903687166 -285.0654498828243 1.510986313101007e-14)
(309.2926854148013 -294.4716014339846 8.883766733830376e-14)
(311.4882359151948 -290.6865634963605 6.254099673880685e-14)
(321.9679793151584 -293.5804810268983 9.097096844335249e-14)
(325.9601120062883 -291.5854543893635 8.095383622322243e-14)
(332.3865072685596 -292.7352519084309 9.456976301799835e-14)
(336.6150884317955 -291.3182669014222 9.160900852018258e-14)
(375.5715033292296 -280.0352798877747 9.663713100492079e-14)
(500.1983547506152 -213.3535443813093 9.178211282466897e-14)
(224.1848271960226 -56.71966758518379 8.448222631666725e-14)
(163.5852326040846 -252.4387993625838 1.617354407511477e-13)
(166.6994168913691 -257.1562505681964 1.811840461494524e-13)
(166.4093749117973 -256.8331747163347 1.736286344566899e-13)
(169.2375637156492 -264.4912459275461 1.853449592213571e-13)
(170.9429920297712 -271.4096535451936 1.797249597596345e-13)
(164.5288130339038 -330.9543229573269 1.901433518068295e-13)
(78.82232676661751 -477.0817350983164 1.853259133120933e-13)
(-22.79523837705529 -362.459167030307 1.806114824174877e-13)
(2.902375372151159 -21.38175483435295 1.690361653509126e-13)
(-3.847317238806238 9.33640058928218 1.644504278405515e-13)
(-19.46568947971196 -13.14823367004758 1.491100676098185e-13)
(282.1084645520238 -285.5773737692812 1.09788338935685e-14)
(301.2187876888133 -294.9698161941226 9.0731735922602e-14)
(305.1282562974749 -291.8111315436652 6.342257859524728e-14)
(315.7690432032048 -294.3269763459283 9.156978805895345e-14)
(320.3797439827008 -292.301367300036 8.110790946881451e-14)
(328.1428359789081 -293.6322355043077 9.536018746046832e-14)
(331.5874704577285 -292.1058818386048 9.190270589280969e-14)
(337.610057023708 -292.4578607806192 9.908605087860973e-14)
(373.0596986709638 -281.4864579099628 9.941997151716712e-14)
(494.6657280195287 -220.6716798370263 9.546718491063255e-14)
(234.6804968031016 -69.3918300669949 8.634319949105622e-14)
(163.8006664432648 -253.614162872413 1.626788677337448e-13)
(166.6303783049003 -257.4953284355401 1.815995095434192e-13)
(166.0591898768942 -256.105284750163 1.731895643485455e-13)
(168.2124659433801 -259.5343741708516 1.856639792920554e-13)
(168.6580432674523 -263.5902927122166 1.7907903266481e-13)
(172.624232389948 -274.080132459201 1.921525432307912e-13)
(164.9386352753785 -329.1819697796272 1.867857399373047e-13)
(83.22774370830864 -474.3211122340209 1.889737222246559e-13)
(-10.51108053686512 -369.6353718327138 1.825879170700941e-13)
(3.722590810938068 -28.10341424543747 1.704164752405756e-13)
(-1.413405868530802 13.17425535997373 1.645543104536422e-13)
(-6.133673578240418 -9.01120540352707 1.38324688726502e-13)
(270.6313519095564 -287.9693574054954 1.991403727721843e-15)
(292.8289011215327 -295.4288018594804 9.364626637373159e-14)
(297.5181004754567 -292.5092275959237 6.355712828738871e-14)
(309.1184820010454 -295.177276494042 9.430317239508585e-14)
(314.3252045520042 -293.1551039269934 8.129424259413095e-14)
(322.474508333081 -294.3358955104493 9.57566995111084e-14)
(327.2709858208581 -292.9417038201253 9.178591025951483e-14)
(332.8274920448761 -293.3885147960887 9.899659149314118e-14)
(337.1812373604433 -292.3542465168956 1.00537434912866e-13)
(371.4517800951306 -283.3261234811759 1.028023457651291e-13)
(488.7959343769298 -228.0128667562323 9.92895117687456e-14)
(245.9438927341005 -83.78748295289736 8.847436110086814e-14)
(164.2504868114197 -255.2540035891689 1.618126406407547e-13)
(166.9585890772521 -258.8040201802838 1.818430469661163e-13)
(165.9956582302035 -256.0913112018417 1.724062587414254e-13)
(168.0771815633199 -259.2603189560586 1.854348891007481e-13)
(167.8176536898313 -259.0220342162388 1.785667525884916e-13)
(170.8959269931135 -267.0637792623244 1.926215011276088e-13)
(172.2113971708931 -273.3609768544598 1.851034596856728e-13)
(166.3606952683923 -330.4667410641434 1.963728284299582e-13)
(87.75020276002094 -471.47693449062 1.912087593285585e-13)
(2.563300712849335 -376.6331638971903 1.845836496557163e-13)
(5.29059054895608 -36.46591123006667 1.721049717355809e-13)
(0.5429619279778936 16.20847890412469 1.64859109593075e-13)
(7.639750107483832 -5.255188889290618 1.270639522923629e-13)
(244.6412030922079 -288.9497990109702 -2.737899298099568e-15)
(280.1371537681381 -295.7922727181372 9.73923086389231e-14)
(289.5565204435144 -293.3568931355542 6.379120446785491e-14)
(301.101483788252 -295.7640059612866 9.612690860052763e-14)
(307.5210389707277 -293.860248755683 8.123530845676301e-14)
(316.2958751965595 -295.138421266533 9.591738788048435e-14)
(321.5869845457001 -293.6126883287232 9.180087626270954e-14)
(328.5651494355751 -294.3048395539392 9.941908078287592e-14)
(332.4237523336184 -293.1103982413737 1.008158672783875e-13)
(337.9420645107376 -293.3968554644739 1.048532655672871e-13)
(368.7297760521624 -284.9497796888267 1.070142678543918e-13)
(482.3573629352863 -235.1995192876846 1.030684122987851e-13)
(256.9428650255596 -99.70131602366905 9.080979732665898e-14)
(164.497702078369 -256.1613795953853 1.573125221421702e-13)
(167.3596744101317 -260.3746108819179 1.828520252411207e-13)
(166.2949978264535 -257.4107225224118 1.715981831625061e-13)
(168.1640735428035 -259.6234995274947 1.859646385010759e-13)
(167.4734205032268 -258.2951612332652 1.781559634616238e-13)
(169.945370955592 -262.2026854844346 1.925329866061643e-13)
(170.0967938010252 -265.8044559551956 1.846073877724805e-13)
(174.4528938430599 -276.8787263247643 1.999347218728648e-13)
(167.0306077510866 -328.5165657250596 1.944721847836233e-13)
(93.16983247478167 -468.326076772667 1.958364688262625e-13)
(17.19100575832537 -386.0318248504834 1.872471642878994e-13)
(8.364721517291196 -45.27295716627802 1.74125820040792e-13)
(2.195837721190651 18.20303011073671 1.658935410211517e-13)
(21.75063385129105 -1.884503915922783 1.170180142532363e-13)
(209.1128446206727 -280.2508965285601 9.460886927500022e-15)
(248.6051971468305 -292.2476532575809 1.084942456696077e-13)
(277.0016875220518 -293.9141154089543 6.099542455440561e-14)
(292.7622436424701 -296.2852877584148 9.832770437567579e-14)
(299.6144330481801 -294.507974532755 8.134749179218202e-14)
(309.4826405410122 -295.8260669378341 9.659573528436616e-14)
(315.4875065583253 -294.4368102118044 9.204737006195615e-14)
(322.8986580351634 -295.02865548801 9.972681058177511e-14)
(328.0939598008493 -293.9806369460366 1.011148515053262e-13)
(333.4145758778946 -294.2671566419002 1.045105362716595e-13)
(337.6753293610449 -293.5215932808078 1.096712507452381e-13)
(366.1357557121361 -286.8303588882657 1.102836106368559e-13)
(475.2848911415049 -242.4552379118356 1.073821905867736e-13)
(267.0774798754002 -117.2489923528285 9.306033034468996e-14)
(164.7785539708599 -257.8575418647571 1.570075825288378e-13)
(167.634877042117 -261.2668208726483 1.842075859374533e-13)
(166.6587387875065 -259.0107265131021 1.711497732002093e-13)
(168.4998764759308 -260.9966256536565 1.859123377636704e-13)
(167.4167135360598 -258.3452962572042 1.775727897094357e-13)
(169.8302943302427 -261.9780347176966 1.924236259315947e-13)
(169.3838316069454 -261.4020087721498 1.844550586162929e-13)
(172.8670704973278 -270.1269391914115 2.003460061931577e-13)
(174.0197974851344 -276.1118524778747 1.933779626640237e-13)
(168.839571041252 -329.457079003732 2.055108644076226e-13)
(98.75530283706955 -464.4996095449333 1.996930029584732e-13)
(32.55940775603439 -396.946365144268 1.90218739374658e-13)
(13.78743454689346 -55.1650753744949 1.76411419664524e-13)
(2.613878986643197 18.3222393622967 1.675081009975492e-13)
(36.19191119974013 -0.1563533435079442 1.070609553039291e-13)
(168.6702212012924 -257.5064585269982 6.797319125828649e-14)
(212.4112354811597 -282.7665488873332 1.150495778359773e-13)
(247.1390274521076 -290.7186708612879 6.015588493170904e-14)
(280.1351352918036 -296.7398678102396 1.010731260271158e-13)
(291.3168420803094 -295.0404929840566 8.207170120968013e-14)
(301.5592754936147 -296.4727083786747 9.720418598567798e-14)
(308.5576713526654 -295.0364284132809 9.173246307129209e-14)
(316.7863527077486 -295.8651405787859 9.974689113237117e-14)
(322.4027307721553 -294.6698770233871 1.014288727505918e-13)
(329.0889335206227 -295.1907917986748 1.046401757052133e-13)
(333.2081345383316 -294.1954669687579 1.098984291130444e-13)
(338.2455643069068 -294.4853974047694 1.120650337841977e-13)
(363.1077943905174 -288.3184820748344 1.152510123610943e-13)
(467.7924012839466 -249.5225185440027 1.115144156864926e-13)
(278.5570001275215 -136.0741048373751 9.612257330834834e-14)
(165.1262844337873 -260.1540336663678 1.557344744755279e-13)
(168.1385691295883 -263.2681919930846 1.848660767537216e-13)
(166.6711535832245 -259.3911221210462 1.679743727268068e-13)
(168.8404275162878 -262.5226797121053 1.862531722130005e-13)
(167.7286721036032 -259.6769196235863 1.769368450395587e-13)
(169.9220615592967 -262.3387087668647 1.924793718276527e-13)
(169.0695054006271 -260.7781786683957 1.843497977766368e-13)
(171.9964241108974 -265.3610396180897 2.000539813858722e-13)
(172.0240138400334 -268.7400939447411 1.928690399488839e-13)
(176.5643721166443 -280.1321360172213 2.094254009733671e-13)
(169.6768546612266 -327.5006535615252 2.059606642317883e-13)
(104.8759914372365 -460.7056192376156 2.052542031759912e-13)
(48.81891401367539 -410.4587365223133 1.9404872191849e-13)
(20.04133888678841 -71.98855323634228 1.790790573770389e-13)
(-0.4558632813656118 14.4370041541264 1.723156417021981e-13)
(48.06959156558288 -2.278821322869482 1.014322021471406e-13)
(150.5913064041881 -235.8897805872519 7.313183255840324e-14)
(169.600013252004 -257.9170067109761 9.740585696177426e-14)
(211.181580197785 -281.5395880612072 5.769458792919586e-14)
(248.9958517951166 -292.7829168736206 1.011581697142475e-13)
(278.5904519579239 -295.4880428265621 8.24220318719711e-14)
(293.204515381838 -297.0318993086887 9.641475876872621e-14)
(300.6422086044059 -295.6578266358469 9.208273310451285e-14)
(309.9393774631882 -296.5688797469882 9.969802528382586e-14)
(316.2807443150346 -295.4820839239069 1.018834180712164e-13)
(323.4311265390531 -295.9290199242619 1.045483668003033e-13)
(328.8636174128981 -295.1163249827578 1.104827326575954e-13)
(333.9900973657322 -295.2882918950621 1.11940486573063e-13)
(338.0272817844275 -294.8011447226648 1.178155735838308e-13)
(360.2188665070584 -289.9829027827419 1.17768792685838e-13)
(459.779949696306 -256.1644329010483 1.158717121226398e-13)
(291.2714249519527 -154.6882045351263 1.003192600434863e-13)
(165.2241381576433 -263.7929756040265 1.465613377703961e-13)
(168.671025001458 -265.7893184463709 1.822055914078038e-13)
(167.0408454846189 -261.3842729407788 1.662523637708072e-13)
(169.1672954752447 -263.5345014238594 1.881922554639933e-13)
(168.0065721902582 -261.0859439422897 1.760005381684316e-13)
(170.2607307731292 -263.7539808545895 1.929478705953291e-13)
(168.9874820720456 -260.8048218629033 1.836430475015184e-13)
(171.9125085278449 -265.2236086245806 2.002982287541412e-13)
(171.431073450302 -264.5077717121219 1.929334929703218e-13)
(175.1843514086928 -273.6724706844645 2.097528010507553e-13)
(176.3491571534891 -279.591876586052 2.05042886042519e-13)
(171.6837069984184 -327.9853881293338 2.164727263721186e-13)
(111.4945006812227 -456.4546145128921 2.110160470807746e-13)
(62.49967192235979 -426.6820137613415 1.987167026276669e-13)
(27.02486879584844 -94.51029937931663 1.825219308184804e-13)
(-6.321442140836431 6.09851760430576 1.794086324878102e-13)
(58.0690141179616 -9.850450525668842 1.009528047173517e-13)
(144.7569793568499 -224.9211656300123 1.413187987015818e-13)
(153.6225362919688 -240.5510145809073 1.010667269405576e-13)
(168.5346320669778 -256.2295697266985 8.274778441578388e-14)
(212.8243926998687 -283.6070106751773 1.024565997553135e-13)
(247.6937012211653 -291.4277395937943 8.592309048584282e-14)
(280.6138302550708 -297.4918056656676 9.730212971896586e-14)
(292.2883452289881 -296.1455165303275 9.328496936841745e-14)
(302.0936789119556 -297.2372203146376 9.945647387003981e-14)
(309.4115805669202 -296.1433420400612 1.024074033686879e-13)
(317.3435190516291 -296.7977909487419 1.044068147304744e-13)
(323.1498790275518 -295.8067157350295 1.108774901267365e-13)
(329.6053183579571 -296.2590842634007 1.119544396561889e-13)
(333.8720796201261 -295.3484114550779 1.180922203134892e-13)
(338.3264072721586 -295.6369392949242 1.186271052693777e-13)
(357.217496002931 -291.4077906860541 1.222590551813155e-13)
(451.5493450864943 -262.7007303596976 1.197991926091297e-13)
(303.5458427834328 -172.5156014737629 1.04759375701148e-13)
(166.6364319913033 -270.0943983850178 1.408971373987382e-13)
(169.4314319681316 -270.392040517319 1.797750530912234e-13)
(167.36848159537 -263.7372564195898 1.649623563053385e-13)
(169.5231029780718 -265.3046389166364 1.877367104575876e-13)
(167.9971631458338 -261.4836020154904 1.737252488567953e-13)
(170.5952368791804 -265.3022326346591 1.935018401816848e-13)
(169.3852514768137 -262.2676730145448 1.831844885921025e-13)
(171.9469702415946 -265.5986969098847 2.003715497521074e-13)
(171.1354080043386 -263.8977801569458 1.927012289916513e-13)
(174.4561027806357 -269.1475181340741 2.096451760968993e-13)
(174.5966772840337 -272.6437724519778 2.049130038620657e-13)
(179.0373127240068 -283.6038778255598 2.203991924959273e-13)
(173.0024245621759 -326.3133138246807 2.208413845312072e-13)
(118.5161524633176 -452.4590608322032 2.174236812679784e-13)
(73.48178375150896 -441.9705272687123 2.042884671219743e-13)
(34.32189653660331 -120.3571888886652 1.864612565195675e-13)
(-11.3523900867974 -3.338144884938524 1.880916749746084e-13)
(66.17877470315852 -21.11225337512493 1.018696827714393e-13)
(141.4021480338398 -218.0893337524084 1.290963956058301e-13)
(148.543432282858 -231.2840096225678 6.901674983735508e-14)
(151.3872243562538 -237.0378536190356 7.892935813538729e-14)
(170.3556302160236 -259.0102520871831 9.834992966063915e-14)
(211.688105992158 -282.2139303358329 9.385021789206469e-14)
(249.4972045337553 -293.7041635462463 9.637725301168266e-14)
(279.3369945298905 -296.4142049146708 9.391175097825425e-14)
(293.7827518067019 -297.8005834120844 9.786180331415555e-14)
(301.5164734714647 -296.7425369181959 1.03136542031091e-13)
(310.5255977344891 -297.5188332494512 1.043244577114686e-13)
(317.0354499236616 -296.6330956645467 1.114341280786537e-13)
(323.9273740665778 -296.9902637656148 1.120815486096669e-13)
(329.452072922685 -296.3153059730853 1.185839044058983e-13)
(334.3798615047164 -296.3492452927437 1.186898471263923e-13)
(338.0876602510967 -296.0858756217564 1.244371580314107e-13)
(354.4462258398502 -292.8544942776347 1.242788603977276e-13)
(443.1153105527986 -269.0727851821959 1.233963437268996e-13)
(315.8029862918065 -190.1344621086839 1.092152145257512e-13)
(166.4866763730931 -265.2521017850498 1.655546096878165e-13)
(170.2390487153371 -275.9366389138056 1.845298620963307e-13)
(168.0326204791453 -268.1010461021546 1.63860334896418e-13)
(170.046343915529 -267.9598465277885 1.879543549167321e-13)
(168.405696302842 -263.5463838837339 1.722471459099918e-13)
(170.9178849139468 -266.3037829650038 1.945915355090928e-13)
(169.6288647173001 -263.5561961996052 1.824399039611924e-13)
(172.270642720172 -266.990782925994 2.005195094007627e-13)
(171.1084982087038 -264.0240691879133 1.923564882033661e-13)
(174.3445815183134 -268.9515056283489 2.097859266935723e-13)
(174.1246218290235 -268.624553953367 2.048800641248137e-13)
(177.6340662232087 -277.3659359342344 2.209917031013053e-13)
(179.4741916515105 -283.998864425989 2.211409323294939e-13)
(174.7666527181031 -325.7724481248005 2.28767139443336e-13)
(126.056541508134 -447.8352298925276 2.244345671984068e-13)
(82.84108874385444 -455.3652694392021 2.109216824732569e-13)
(40.75702485766694 -151.6524193848271 1.920994781856502e-13)
(-12.96994181017522 -11.13919304289757 1.928983175028721e-13)
(74.50911889591232 -34.72752144702609 1.038358347766061e-13)
(138.5259030185059 -211.9977634036641 1.064356276738049e-13)
(144.9872417241723 -224.1184583864884 6.578346165435497e-14)
(145.8173832420891 -226.9644584339613 1.207811963351446e-13)
(154.4222212450455 -241.7881890609988 1.059984005495792e-13)
(168.8281394801209 -256.6779672014052 9.088209631552413e-14)
(213.6267637116503 -284.7134525151449 9.532641584534969e-14)
(248.4962925850226 -292.4725913729378 9.855202337805707e-14)
(281.1409143069783 -298.3239522362003 9.627271095301137e-14)
(293.1586721861332 -297.2281906048485 1.044586336643523e-13)
(302.7601941092208 -298.2020614205484 1.039378740293059e-13)
(310.1962969691683 -297.3193237194045 1.122009219374427e-13)
(317.8591576808965 -297.8520249658094 1.121826031514588e-13)
(323.7375597068943 -297.0114266492954 1.189626441616286e-13)
(329.8430232765006 -297.3309810380956 1.187169396125131e-13)
(334.2777982095656 -296.5575597058648 1.249181991317482e-13)
(338.065315730242 -296.8035551415607 1.248345994192445e-13)
(351.7148383117362 -294.1343989042756 1.281328986399757e-13)
(433.9368360582512 -274.8886449573012 1.264467900760515e-13)
(326.5350750817636 -207.264541131307 1.136611873387769e-13)
(165.5240759987412 -256.2124997026674 1.585648682063471e-13)
(169.8861175071401 -271.1122497558485 1.8921937799659e-13)
(169.2355230478278 -274.3083482369225 1.741973468578294e-13)
(170.8540894443829 -272.6729645993688 1.865531652496511e-13)
(168.9079426879495 -266.1650239053509 1.714998723298508e-13)
(171.3054793269031 -268.1252193123714 1.944120711113313e-13)
(169.7686832044524 -264.2163888051546 1.818031247733346e-13)
(172.5880180662795 -268.4986989890145 2.004490233332055e-13)
(171.5026463007781 -265.493769709108 1.923131799202891e-13)
(174.2774180084484 -269.3316599839586 2.096759332447586e-13)
(173.8771370698635 -268.0675073940655 2.04830504579457e-13)
(176.9110192412032 -272.9321228606328 2.210797405010514e-13)
(177.8346237965623 -277.5142459599986 2.213931406333994e-13)
(181.4586965500721 -286.8538267117561 2.317304989429249e-13)
(176.7132503920258 -324.8073839481007 2.359946743210019e-13)
(133.6600902317846 -441.4333195165208 2.321966332703077e-13)
(91.94602520541243 -465.4600649279036 2.197439286597325e-13)
(48.35317970738348 -183.4594473684026 1.984444020844724e-13)
(-12.47134377361991 -19.20246945431668 1.942948104898796e-13)
(85.5472122238466 -48.66530185146217 1.062632704103887e-13)
(136.3725248079559 -206.2114974243268 1.098639406155028e-13)
(141.4841756924718 -217.0069301550828 5.804803861530165e-14)
(142.7553241876911 -220.5819004421454 1.218088812908035e-13)
(149.3139816472139 -232.4131232866542 7.398895453931777e-14)
(152.1220876361647 -238.1392399906594 8.591716378362533e-14)
(171.3669488465844 -260.5521037058438 9.28126891964937e-14)
(212.1456132383647 -282.9035055692972 9.569064730695673e-14)
(250.3025556301306 -294.6953902881002 9.19596948066052e-14)
(280.1599752763603 -297.5324015790647 1.062414360991513e-13)
(294.4835403311031 -298.7767992282232 1.039113385220079e-13)
(302.3837207453485 -297.9277015413711 1.133661117834035e-13)
(311.0756177844091 -298.5960535887805 1.121151502724508e-13)
(317.6299387969221 -297.8298473367904 1.194287130916599e-13)
(324.1688091618399 -298.0808014972068 1.187721007336653e-13)
(329.6331419070126 -297.5183747717869 1.252630482643459e-13)
(334.4457097844846 -297.3917486617686 1.248844294572969e-13)
(337.7721969514008 -297.3916761741942 1.298369575033736e-13)
(349.2804460922554 -295.3522225573681 1.295288813409201e-13)
(423.8049588369323 -279.7454217275931 1.292376650639959e-13)
(335.7669869039518 -224.4698309527924 1.183772142550028e-13)
(163.8947240319199 -250.1691916702104 1.395650477991479e-13)
(167.5089157622407 -260.5575144915318 1.839241075922156e-13)
(169.1645442452361 -269.5075281653525 1.633201440384875e-13)
(171.5531930434313 -278.0633461021445 1.780069475259654e-13)
(169.7432679764587 -270.8610758808647 1.703257203632616e-13)
(171.8315290945199 -270.7752880693738 1.952332429579601e-13)
(170.2945237607154 -266.5149651274662 1.826472077468491e-13)
(172.9094835707127 -269.4517112685691 2.00644282331458e-13)
(171.7436959381927 -266.7813617816487 1.917590079987329e-13)
(174.5942047988958 -270.7417263226023 2.10080515747082e-13)
(173.9479967568122 -268.3134486692099 2.047909063229968e-13)
(176.9956027887002 -272.9166873547741 2.209581230427221e-13)
(177.4560204362175 -273.7034763212428 2.216403754191796e-13)
(179.901396423663 -280.6424438221802 2.318445855847032e-13)
(182.5384845359238 -288.3500871899157 2.381379196311938e-13)
(178.6740746754457 -324.2675226006347 2.441830130779147e-13)
(140.7641821126847 -433.182837156535 2.39451113832664e-13)
(99.73645054169165 -470.814297356429 2.287524833048647e-13)
(57.99678070950769 -213.7209229867246 2.047905804612598e-13)
(-9.410197578113959 -29.28921270404312 1.94242463094372e-13)
(97.3686541034605 -64.33928880924321 1.091012936377689e-13)
(134.2430170770348 -200.3488832962689 8.996853070664765e-14)
(138.6290310256239 -210.3897383743271 7.000126000249096e-14)
(139.8770670731344 -214.4721626332636 1.274840186909511e-13)
(145.7947860561779 -225.3044464019196 6.512712486763658e-14)
(146.7554409933574 -228.4281968675631 1.147237791560971e-13)
(155.487329144768 -243.4129275885435 9.624464773900284e-14)
(169.4564205177405 -257.6122344998724 1.114718795383494e-13)
(214.4284785518376 -286.1043897991275 9.766585654523161e-14)
(249.2270033909905 -293.5729049697408 1.106149093750291e-13)
(281.7981243839661 -299.3235034514198 1.03030320630407e-13)
(294.0419563852274 -298.4219443643258 1.143889681300307e-13)
(303.3935764822988 -299.2698460485993 1.120735087604812e-13)
(310.8276054940321 -298.5347813300205 1.199281793218713e-13)
(318.0970398734962 -298.9220495259819 1.18791551902493e-13)
(323.9528029460046 -298.2455683132899 1.256657852077137e-13)
(329.6602405337957 -298.3442520845771 1.249053477388485e-13)
(334.2357468690516 -297.7575869011196 1.303235378983903e-13)
(337.4834329347181 -298.0607460014783 1.297892813448459e-13)
(346.9179295556845 -296.4155464587218 1.326246214492313e-13)
(413.426738664962 -283.8266285748156 1.317060111160072e-13)
(340.6653780072973 -238.501287119061 1.224166958595286e-13)
(163.8574934598826 -256.5882101262916 1.598772792052401e-13)
(166.5731132290938 -255.0730020599231 1.883912928149519e-13)
(167.1362049250336 -259.7736612536789 1.641905127853063e-13)
(171.2660347372169 -273.1303696621424 1.903054313165938e-13)
(170.7337981995192 -276.7329091309965 1.794460466419402e-13)
(172.5468366771199 -275.3112146933956 1.9503219305014e-13)
(170.6877506143631 -268.9795598359536 1.83596503293587e-13)
(173.3333529392583 -271.3584194284545 2.007082436855557e-13)
(171.9199301269766 -267.5794904280084 1.913083272815382e-13)
(174.8763772646308 -272.1187675445555 2.099667039146249e-13)
(174.3290705768698 -269.7689376656103 2.047726519031455e-13)
(176.939210540632 -273.1551593886218 2.208796603141572e-13)
(177.2543544194341 -273.3021982967434 2.218785171056547e-13)
(179.3537297502805 -276.6205405585281 2.316471224891087e-13)
(181.0787613512591 -282.3865016390085 2.382618914768752e-13)
(183.9962016100136 -290.3180060992125 2.465752947026803e-13)
(180.3491917196074 -322.6872343515294 2.503878674336306e-13)