/*--------------------------------*- C++ -*----------------------------------*\
| =========                 |                                                 |
| \\      /  F ield         | OpenFOAM: The Open Source CFD Toolbox           |
|  \\    /   O peration     | Version:  v1912                                 |
|   \\  /    A nd           | Website:  www.openfoam.com                      |
|    \\/     M anipulation  |                                                 |
\*---------------------------------------------------------------------------*/
FoamFile
{
    version     2.0;
    format      ascii;
    class       surfaceScalarField;
    location    "0.01";
    object      phi;
}
// * * * * * * * * * * * * * * * * * * * * * * * * * * * * * * * * * * * * * //

dimensions      [1 0 -1 0 0 0 0];
oriented        oriented;


internalField   nonuniform List<scalar> 
31936
(
0.00525002
1.31205e-18
0.00525002
1.86771e-18
0.00525002
1.0842e-18
0.00525002
7.97058e-19
0.00525002
1.58395e-18
0.00525002
3.76421e-18
0.00525002
2.19636e-18
0.00525002
3.23905e-18
0.00525002
3.96496e-18
0.00525002
3.83452e-18
0.00525002
4.25888e-18
0.00525002
1.27224e-18
0.00525002
1.05059e-18
0.00525002
-1.26144e-18
0.00525002
-6.03511e-20
0.00525002
3.79132e-18
0.00525002
4.13013e-18
0.00525002
4.31648e-18
0.00525002
2.79521e-18
0.00525002
-2.0799e-19
0.00525002
9.77264e-19
0.00525002
1.13545e-18
0.00525002
1.8423e-18
0.00525002
7.37977e-19
0.00525002
5.05255e-19
0.00525002
2.61479e-18
0.00525002
3.6829e-18
0.00525002
4.35375e-18
0.00525002
4.01832e-18
0.00525002
4.81623e-18
0.00525002
3.73542e-18
0.00525002
3.80826e-18
0.00525002
1.21634e-18
0.00525002
5.16351e-18
0.00525002
2.37e-18
0.00525002
2.01594e-18
0.00525002
1.64282e-18
0.00525002
-1.13545e-18
0.00525002
7.97905e-19
0.00525002
3.07812e-18
0.00525002
-7.04393e-18
0.00525002
4.1861e-16
0.00525002
-1.64517e-14
0.00525002
-1.63671e-12
0.00525002
7.1111e-12
0.00524995
5.85689e-10
0.00522107
3.24343e-08
1.17223e-09
0.00525002
1.84484e-18
0.00525002
2.08031e-18
0.00525002
2.03119e-18
0.00525002
-7.58094e-20
0.00525002
-7.42848e-19
0.00525002
1.89566e-18
0.00525002
-1.10114e-19
0.00525002
-5.05679e-19
0.00525002
-4.30377e-18
0.00525002
1.51449e-18
0.00525002
2.15146e-18
0.00525002
-1.2769e-18
0.00525002
3.10946e-18
0.00525002
2.43353e-18
0.00525002
4.08948e-18
0.00525002
7.17776e-18
0.00525002
6.39679e-18
0.00525002
7.48608e-18
0.00525002
2.14299e-18
0.00525002
1.58734e-18
0.00525002
2.3124e-18
0.00525002
3.73118e-18
0.00525002
4.94837e-18
0.00525002
4.00054e-18
0.00525002
4.92296e-18
0.00525002
5.91398e-18
0.00525002
7.80964e-18
0.00525002
7.23366e-18
0.00525002
7.84691e-18
0.00525002
7.82658e-18
0.00525002
7.09814e-18
0.00525002
5.50571e-18
0.00525002
3.14757e-18
0.00525002
5.34478e-18
0.00525002
6.30193e-18
0.00525002
5.10591e-18
0.00525002
5.86824e-18
0.00525002
3.72017e-18
0.00525002
3.38305e-18
0.00525002
3.2272e-19
0.00525002
2.30528e-17
0.00525002
-4.10154e-16
0.00525002
-1.80945e-14
0.00525002
-1.32011e-12
0.00525002
-9.059e-12
0.00524995
5.45039e-10
0.00522112
5.34592e-08
3.9491e-09
0.00525002
-4.51469e-19
0.00525002
-6.28922e-19
0.00525002
7.92611e-19
0.00525002
-2.91633e-18
0.00525002
-1.87872e-18
0.00525002
-3.7405e-18
0.00525002
-4.99241e-18
0.00525002
-6.5374e-18
0.00525002
-5.59042e-18
0.00525002
-5.2804e-18
0.00525002
-4.34358e-18
0.00525002
-2.89601e-18
0.00525002
1.28325e-19
0.00525002
-1.68517e-18
0.00525002
-9.14796e-20
0.00525002
-3.90694e-19
0.00525002
1.83552e-18
0.00525002
1.12401e-18
0.00525002
-5.31598e-18
0.00525002
-4.90432e-18
0.00525002
-4.05898e-18
0.00525002
-2.55762e-18
0.00525002
2.03733e-18
0.00525002
-1.77877e-19
0.00525002
1.92827e-18
0.00525002
1.86517e-18
0.00525002
2.41489e-18
0.00525002
-1.16848e-18
0.00525002
-2.15528e-18
0.00525002
-2.51018e-18
0.00525002
-2.76556e-18
0.00525002
-3.11623e-18
0.00525002
-4.60447e-18
0.00525002
-1.59327e-18
0.00525002
7.52165e-19
0.00525002
-9.32583e-19
0.00525002
1.9937e-18
0.00525002
1.78936e-18
0.00525002
-1.00035e-18
0.00525002
-6.56027e-19
0.00525002
1.4879e-17
0.00525002
-2.43837e-16
0.00525002
-2.43434e-14
0.00525002
-1.41232e-12
0.00525002
6.06776e-13
0.00524995
4.86159e-10
0.00522124
-2.3122e-08
2.12473e-08
0.00525002
3.14249e-19
0.00525002
-1.2822e-19
0.00525002
-2.56227e-19
0.00525002
1.83171e-18
0.00525002
1.7271e-18
0.00525002
2.30859e-18
0.00525002
3.28014e-19
0.00525002
-3.9675e-18
0.00525002
-2.67239e-18
0.00525002
-1.9738e-18
0.00525002
-2.17772e-18
0.00525002
7.29507e-19
0.00525002
1.63054e-20
0.00525002
-1.89693e-18
0.00525002
-9.39783e-19
0.00525002
1.87533e-18
0.00525002
1.83637e-18
0.00525002
4.08948e-18
0.00525002
-6.47472e-18
0.00525002
7.24721e-18
0.00525002
-3.53721e-18
0.00525002
-4.34867e-18
0.00525002
-1.20872e-18
0.00525002
1.43911e-18
0.00525002
1.21253e-18
0.00525002
3.19501e-18
0.00525002
1.37304e-18
0.00525002
3.43726e-18
0.00525002
5.70731e-18
0.00525002
-6.35952e-18
0.00525002
5.43456e-18
0.00525002
6.15454e-18
0.00525002
-5.37188e-18
0.00525002
3.31868e-18
0.00525002
2.52797e-18
0.00525002
3.9116e-18
0.00525002
-7.38295e-19
0.00525002
-2.54618e-18
0.00525002
-1.14265e-18
0.00525002
-2.35052e-19
0.00525002
-1.55651e-17
0.00525002
-4.93583e-17
0.00525002
-1.06382e-14
0.00525002
-6.96043e-13
0.00525002
-6.85992e-12
0.00524995
8.14218e-11
0.00522114
5.17309e-09
1.54759e-08
0.00525002
4.22034e-19
0.00525002
1.82536e-18
0.00525002
1.98375e-18
0.00525002
1.15451e-18
0.00525002
6.17275e-19
0.00525002
-3.43048e-19
0.00525002
-1.56562e-19
0.00525002
-1.72371e-18
0.00525002
-5.50148e-19
0.00525002
3.18654e-18
0.00525002
2.34459e-18
0.00525002
1.31205e-18
0.00525002
8.63127e-19
0.00525002
4.15258e-19
0.00525002
7.66777e-19
0.00525002
4.95853e-18
0.00525002
4.31309e-18
0.00525002
4.45201e-18
0.00525002
6.70172e-18
0.00525002
6.31378e-18
0.00525002
2.82316e-18
0.00525002
3.77777e-18
0.00525002
3.74558e-18
0.00525002
6.54756e-18
0.00525002
5.90213e-18
0.00525002
6.09186e-18
0.00525002
3.8108e-18
0.00525002
2.31409e-18
0.00525002
4.10811e-18
0.00525002
5.8818e-18
0.00525002
4.75016e-18
0.00525002
4.9094e-18
0.00525002
4.10896e-18
0.00525002
4.17672e-18
0.00525002
3.92346e-18
0.00525002
5.11438e-18
0.00525002
4.14114e-18
0.00525002
1.42174e-18
0.00525002
2.11801e-18
0.00525002
1.7127e-18
0.00525002
-6.97108e-18
0.00525002
1.96241e-16
0.00525002
-6.52039e-15
0.00525002
2.56418e-14
0.00525002
1.11629e-11
0.00524995
2.90836e-10
0.00522119
4.35618e-08
7.53795e-09
0.00525002
-8.51692e-19
0.00525002
-9.23266e-19
0.00525002
1.69152e-18
0.00525002
1.13968e-18
0.00525002
-7.96211e-20
0.00525002
1.23307e-18
0.00525002
1.73091e-18
0.00525002
1.99222e-18
0.00525002
1.84696e-18
0.00525002
-7.69953e-19
0.00525002
-5.20714e-19
0.00525002
2.1917e-19
0.00525002
8.29457e-19
0.00525002
3.62445e-18
0.00525002
2.03796e-18
0.00525002
9.65618e-19
0.00525002
-2.41934e-20
0.00525002
-1.65277e-18
0.00525002
7.44905e-20
0.00525002
8.01293e-19
0.00525002
-2.45978e-18
0.00525002
-1.41709e-18
0.00525002
2.47503e-18
0.00525002
4.35375e-18
0.00525002
4.77388e-18
0.00525002
8.5508e-19
0.00525002
7.06002e-19
0.00525002
-8.4788e-19
0.00525002
-2.23871e-18
0.00525002
-1.14307e-18
0.00525002
-1.14731e-18
0.00525002
-1.60089e-18
0.00525002
-2.8113e-18
0.00525002
-1.90413e-18
0.00525002
-2.40667e-19
0.00525002
-8.85149e-19
0.00525002
9.06325e-20
0.00525002
-1.31163e-18
0.00525002
-1.74362e-18
0.00525002
4.65445e-19
0.00525002
-5.95634e-18
0.00525002
5.67255e-16
0.00525002
1.48883e-15
0.00525002
3.41813e-13
0.00525002
5.83391e-13
0.00524995
4.42775e-10
0.00522112
1.06054e-09
-3.63381e-08
0.00525002
-6.61956e-19
0.00525002
-1.08637e-18
0.00525002
1.33662e-18
0.00525002
3.21534e-18
0.00525002
4.82301e-18
0.00525002
3.06541e-18
0.00525002
1.79656e-18
0.00525002
4.42998e-18
0.00525002
4.08439e-18
0.00525002
-9.62653e-19
0.00525002
1.15662e-18
0.00525002
2.02441e-19
0.00525002
1.20067e-18
0.00525002
-7.67412e-19
0.00525002
1.38659e-18
0.00525002
-5.77253e-19
0.00525002
-1.53228e-18
0.00525002
-1.8838e-18
0.00525002
-1.35652e-18
0.00525002
1.02156e-18
0.00525002
3.61514e-18
0.00525002
3.79471e-19
0.00525002
-1.32338e-18
0.00525002
-2.9572e-19
0.00525002
7.06637e-19
0.00525002
-2.11843e-18
0.00525002
2.24539e-19
0.00525002
5.83606e-19
0.00525002
-1.99984e-18
0.00525002
-1.96342e-18
0.00525002
-1.94902e-18
0.00525002
-1.62673e-18
0.00525002
-1.0698e-18
0.00525002
-6.21934e-19
0.00525002
-2.57807e-20
0.00525002
-3.49401e-21
0.00525002
1.22799e-18
0.00525002
1.2553e-18
0.00525002
1.31671e-18
0.00525002
3.07049e-18
0.00525002
-3.55144e-17
0.00525002
-1.08745e-16
0.00525002
1.26145e-14
0.00525002
1.72704e-13
0.00525002
8.46204e-12
0.00524994
2.90182e-10
0.00522117
-1.40422e-09
-1.70184e-08
0.00525002
3.2975e-18
0.00525002
2.55465e-18
0.00525002
1.62842e-18
0.00525002
-1.01644e-20
0.00525002
-1.61106e-18
0.00525002
-1.55261e-18
0.00525002
-8.30304e-19
0.00525002
-3.97047e-19
0.00525002
-1.11766e-18
0.00525002
2.27682e-18
0.00525002
3.72356e-18
0.00525002
6.48827e-19
0.00525002
3.57024e-19
0.00525002
-1.39464e-18
0.00525002
-2.62072e-18
0.00525002
-1.15366e-18
0.00525002
-5.86994e-19
0.00525002
7.91976e-20
0.00525002
1.0842e-19
0.00525002
7.38613e-19
0.00525002
1.583e-18
0.00525002
1.40502e-18
0.00525002
-3.32037e-18
0.00525002
-3.11962e-18
0.00525002
-5.02291e-18
0.00525002
-4.07846e-18
0.00525002
-3.70323e-18
0.00525002
-1.9613e-18
0.00525002
-1.51746e-18
0.00525002
-2.92142e-18
0.00525002
-1.6983e-19
0.00525002
-2.15824e-18
0.00525002
1.24853e-18
0.00525002
1.86008e-18
0.00525002
-1.38575e-18
0.00525002
1.14688e-18
0.00525002
1.47278e-18
0.00525002
-6.26804e-19
0.00525002
-1.99265e-18
0.00525002
1.82938e-18
0.00525002
4.27176e-17
0.00525002
1.90874e-16
0.00525002
2.25514e-16
0.00525002
-3.88578e-14
0.00525002
-2.22718e-12
0.00524995
8.8341e-10
0.00522139
2.37193e-09
3.81761e-09
0.00525002
1.42471e-18
0.00525002
8.74138e-19
0.00525002
-8.1654e-19
0.00525002
-1.2553e-18
0.00525002
-5.79032e-18
0.00525002
-6.37816e-18
0.00525002
-3.9404e-18
0.00525002
-3.43218e-18
0.00525002
-3.87602e-18
0.00525002
1.32836e-18
0.00525002
3.03153e-18
0.00525002
2.60971e-18
0.00525002
6.48086e-19
0.00525002
-4.15893e-19
0.00525002
-1.94818e-18
0.00525002
-3.92854e-18
0.00525002
-5.66665e-18
0.00525002
-2.97563e-18
0.00525002
-3.84045e-18
0.00525002
-5.40068e-18
0.00525002
-2.27682e-18
0.00525002
-3.30428e-18
0.00525002
-4.3961e-18
0.00525002
-6.28329e-18
0.00525002
-5.34986e-18
0.00525002
-3.42371e-18
0.00525002
-5.24991e-18
0.00525002
-5.52943e-18
0.00525002
-3.29835e-18
0.00525002
-3.73457e-18
0.00525002
-2.34967e-18
0.00525002
-4.47742e-18
0.00525002
-3.25938e-18
0.00525002
-4.05559e-18
0.00525002
-4.8535e-18
0.00525002
-4.88399e-18
0.00525002
-4.41643e-18
0.00525002
-1.80418e-18
0.00525002
-2.01043e-18
0.00525002
-3.47961e-18
0.00525002
-1.63308e-18
0.00525002
4.98299e-16
0.00525002
1.77315e-14
0.00525002
3.21943e-13
0.00525002
1.44379e-11
0.00524995
5.67864e-10
0.00522137
-6.15851e-08
-1.17965e-08
0.00525002
-8.81338e-19
0.00525002
-5.96989e-18
0.00525002
-4.9094e-18
0.00525002
-4.89246e-18
0.00525002
-2.23447e-18
0.00525002
8.35174e-19
0.00525002
-1.89608e-18
0.00525002
2.23299e-19
0.00525002
-4.89373e-19
0.00525002
-2.53093e-18
0.00525002
-1.74997e-18
0.00525002
-1.64833e-18
0.00525002
-1.14582e-18
0.00525002
-6.61321e-19
0.00525002
3.48872e-20
0.00525002
2.80368e-19
0.00525002
4.13776e-18
0.00525002
1.48104e-18
0.00525002
1.92276e-18
0.00525002
-4.65699e-18
0.00525002
1.47934e-18
0.00525002
-4.4861e-19
0.00525002
-1.4408e-18
0.00525002
-3.49655e-18
0.00525002
-4.13013e-18
0.00525002
-3.61598e-18
0.00525002
-5.01782e-18
0.00525002
-5.56331e-18
0.00525002
-3.7244e-18
0.00525002
-2.65291e-18
0.00525002
-5.18384e-18
0.00525002
-4.62141e-18
0.00525002
-5.40068e-18
0.00525002
-5.43626e-18
0.00525002
-5.27193e-18
0.00525002
-4.93312e-18
0.00525002
-1.17229e-18
0.00525002
-1.56066e-19
0.00525002
-4.2934e-20
0.00525002
-1.98121e-18
0.00525002
-1.39049e-17
0.00525002
-6.54424e-16
0.00525002
1.37889e-14
0.00525002
3.07384e-13
0.00525002
8.99668e-12
0.00524995
2.99378e-11
0.00522126
9.50272e-10
-7.12413e-08
0.00525002
1.87279e-18
0.00525002
-4.51638e-18
0.00525002
-2.97563e-18
0.00525002
-1.14561e-18
0.00525002
-5.33737e-19
0.00525002
2.05914e-18
0.00525002
1.73642e-19
0.00525002
6.20245e-19
0.00525002
-9.01243e-19
0.00525002
-6.80697e-19
0.00525002
-2.32002e-18
0.00525002
-8.79855e-19
0.00525002
2.88555e-19
0.00525002
2.53602e-18
0.00525002
2.51061e-18
0.00525002
2.09429e-18
0.00525002
4.73661e-18
0.00525002
3.26362e-18
0.00525002
5.00258e-18
0.00525002
5.0517e-18
0.00525002
3.27209e-18
0.00525002
1.83679e-18
0.00525002
2.77742e-18
0.00525002
-7.49201e-19
0.00525002
-3.06965e-18
0.00525002
-1.99561e-18
0.00525002
-4.56318e-18
0.00525002
-3.84807e-18
0.00525002
2.96462e-19
0.00525002
2.8058e-20
0.00525002
-2.85535e-18
0.00525002
7.42848e-19
0.00525002
1.49078e-18
0.00525002
9.16701e-19
0.00525002
1.73112e-18
0.00525002
2.63004e-19
0.00525002
6.41204e-19
0.00525002
1.01432e-19
0.00525002
-3.33382e-20
0.00525002
-2.75116e-18
0.00525002
-2.00442e-17
0.00525002
2.0112e-17
0.00525002
1.38084e-15
0.00525002
-4.25841e-13
0.00525002
-3.7575e-11
0.00524995
-5.57783e-10
0.00522127
5.20003e-08
-7.51756e-08
0.00525002
8.26704e-19
0.00525002
-5.02291e-19
0.00525002
-1.97105e-18
0.00525002
-1.31332e-18
0.00525002
-4.4681e-19
0.00525002
1.40375e-18
0.00525002
-2.51886e-19
0.00525002
-3.32249e-19
0.00525002
-2.43776e-18
0.00525002
-1.5073e-18
0.00525002
-4.21653e-18
0.00525002
-4.09064e-18
0.00525002
1.72837e-18
0.00525002
3.46436e-19
0.00525002
7.71647e-19
0.00525002
1.90074e-18
0.00525002
-1.5557e-19
0.00525002
-6.57933e-19
0.00525002
-1.92785e-18
0.00525002
-3.67273e-18
0.00525002
-2.90956e-18
0.00525002
6.78473e-19
0.00525002
2.64528e-18
0.00525002
4.8823e-18
0.00525002
3.44912e-18
0.00525002
2.7698e-18
0.00525002
4.24787e-18
0.00525002
3.9387e-18
0.00525002
2.86551e-18
0.00525002
-1.75548e-19
0.00525002
2.62411e-18
0.00525002
1.22566e-18
0.00525002
3.1408e-18
0.00525002
2.9121e-18
0.00525002
2.09471e-18
0.00525002
5.38713e-19
0.00525002
-1.35314e-18
0.00525002
1.05879e-20
0.00525002
1.11999e-18
0.00525002
-6.94355e-19
0.00525002
-1.29935e-18
0.00525002
3.47893e-17
0.00525002
-8.18139e-15
0.00525002
3.27889e-14
0.00525002
-7.77704e-12
0.00524995
-7.72848e-10
0.0052214
-4.3922e-08
1.28436e-07
0.00525002
2.62368e-19
0.00525002
1.73176e-18
0.00525002
-2.69865e-18
0.00525002
-1.43064e-18
0.00525002
-2.98494e-18
0.00525002
-2.43437e-18
0.00525002
-1.53635e-19
0.00525002
-1.09691e-18
0.00525002
-1.84547e-18
0.00525002
-1.57506e-18
0.00525002
-1.34001e-18
0.00525002
-5.49047e-18
0.00525002
-4.26058e-18
0.00525002
-9.63076e-19
0.00525002
-8.76679e-19
0.00525002
1.83425e-18
0.00525002
-1.86517e-18
0.00525002
-1.97867e-18
0.00525002
-4.84333e-18
0.00525002
-5.17876e-18
0.00525002
-2.60886e-18
0.00525002
1.32645e-18
0.00525002
-8.47849e-20
0.00525002
-1.48993e-18
0.00525002
2.69738e-18
0.00525002
2.31409e-18
0.00525002
5.8513e-18
0.00525002
1.78682e-18
0.00525002
-4.27752e-20
0.00525002
-4.20181e-19
0.00525002
1.17462e-18
0.00525002
2.44454e-18
0.00525002
1.2409e-18
0.00525002
1.17738e-18
0.00525002
6.99649e-19
0.00525002
5.96099e-19
0.00525002
-1.29638e-18
0.00525002
-2.05702e-18
0.00525002
7.89435e-19
0.00525002
2.76641e-18
0.00525002
6.2511e-18
0.00525002
1.9536e-17
0.00525002
-3.53688e-15
0.00525002
-2.7566e-13
0.00525002
2.45824e-11
0.00524994
1.50692e-10
0.00522122
1.03781e-10
9.92228e-06
0.00525002
-3.79471e-19
0.00525002
5.29819e-19
0.00525002
5.72409e-19
0.00525002
-5.29819e-19
0.00525002
-1.2985e-18
0.00525002
-1.46537e-18
0.00525002
-3.98529e-19
0.00525002
2.77192e-19
0.00525002
1.0463e-18
0.00525002
-6.31887e-19
0.00525002
4.54221e-20
0.00525002
1.79105e-18
0.00525002
-1.20109e-18
0.00525002
-1.74912e-18
0.00525002
-3.66342e-19
0.00525002
4.41728e-19
0.00525002
5.34478e-19
0.00525002
-7.54495e-19
0.00525002
3.42051e-19
0.00525002
1.77072e-18
0.00525002
3.87729e-19
0.00525002
-2.20567e-18
0.00525002
-2.96631e-18
0.00525002
-3.67104e-18
0.00525002
-2.97563e-18
0.00525002
-1.01475e-18
0.00525002
-4.95514e-19
0.00525002
-3.34832e-18
0.00525002
-1.58183e-18
0.00525002
-4.6248e-19
0.00525002
-3.32037e-18
0.00525002
-2.15019e-18
0.00525002
-3.66172e-18
0.00525002
-1.54922e-18
0.00525002
1.36748e-19
0.00525002
-1.94225e-18
0.00525002
5.29396e-19
0.00525002
-3.37331e-19
0.00525002
9.44442e-19
0.00525002
2.34205e-18
0.00525002
1.43555e-17
0.00525002
-2.5533e-16
0.00525002
1.52951e-14
0.00525002
8.38591e-14
0.00525002
2.18673e-11
0.00524994
1.26957e-09
0.00522185
-3.67219e-07
0.000171599
0.00525002
2.32299e-19
0.00525002
-9.81288e-19
0.00525002
3.03153e-18
0.00525002
3.05948e-18
0.00525002
2.4547e-18
0.00525002
2.19466e-18
0.00525002
6.53486e-19
0.00525002
1.77369e-18
0.00525002
9.76205e-19
0.00525002
1.27987e-18
0.00525002
2.05151e-18
0.00525002
3.52874e-18
0.00525002
2.72745e-18
0.00525002
1.45118e-18
0.00525002
1.2282e-18
0.00525002
-2.20949e-18
0.00525002
-6.24687e-21
0.00525002
4.22881e-19
0.00525002
2.75032e-18
0.00525002
4.6824e-18
0.00525002
2.20059e-18
0.00525002
-2.76156e-18
0.00525002
-7.38613e-19
0.00525002
-9.80017e-19
0.00525002
-5.65939e-19
0.00525002
-1.57252e-18
0.00525002
-9.34701e-19
0.00525002
-3.0688e-18
0.00525002
9.49947e-19
0.00525002
8.44915e-19
0.00525002
4.15343e-18
0.00525002
3.09506e-18
0.00525002
-4.57059e-18
0.00525002
1.04439e-18
0.00525002
5.0102e-19
0.00525002
-1.79995e-19
0.00525002
3.10861e-18
0.00525002
2.63004e-18
0.00525002
1.4065e-18
0.00525002
6.35275e-21
0.00525002
9.70022e-18
0.00525002
-3.19026e-16
0.00525002
1.34883e-14
0.00525002
1.79239e-13
0.00525002
6.33911e-12
0.00524995
5.04576e-09
0.00522373
-8.69816e-07
0.000995577
0.00525002
1.79317e-18
0.00525002
7.11402e-19
0.00525002
-1.44419e-18
0.00525002
-2.13706e-18
0.00525002
-1.53948e-18
0.00525002
8.92032e-19
0.00525002
-1.32582e-18
0.00525002
-7.13096e-19
0.00525002
1.10495e-18
0.00525002
2.76048e-18
0.00525002
3.5694e-18
0.00525002
1.67204e-18
0.00525002
-1.43567e-18
0.00525002
1.7991e-18
0.00525002
-3.89635e-20
0.00525002
-1.56574e-18
0.00525002
-2.90532e-18
0.00525002
-1.2985e-18
0.00525002
-1.14731e-18
0.00525002
-2.28275e-18
0.00525002
-8.99549e-19
0.00525002
5.14731e-19
0.00525002
2.20313e-18
0.00525002
1.73896e-18
0.00525002
1.48443e-18
0.00525002
9.53971e-19
0.00525002
1.50137e-18
0.00525002
1.68433e-18
0.00525002
1.94691e-18
0.00525002
3.22974e-18
0.00525002
3.32376e-18
0.00525002
2.8274e-18
0.00525002
3.56769e-20
0.00525002
2.65121e-19
0.00525002
5.02079e-19
0.00525002
1.09183e-18
0.00525002
2.63935e-18
0.00525002
9.73453e-19
0.00525002
8.3221e-19
0.00525002
-4.58668e-19
0.00525002
1.23904e-17
0.00525002
1.13408e-16
0.00525002
-1.52057e-14
0.00525002
1.04738e-12
0.00525002
2.89552e-11
0.00524997
9.6641e-09
0.005224
9.24935e-06
0.00306178
0.00525002
1.10655e-19
0.00525002
1.34551e-18
0.00525002
-5.49024e-20
0.00525002
-8.77738e-19
0.00525002
-2.79309e-19
0.00525002
-4.95175e-18
0.00525002
-2.96462e-18
0.00525002
-2.11419e-18
0.00525002
2.59351e-19
0.00525002
1.57167e-18
0.00525002
1.11173e-18
0.00525002
5.13937e-19
0.00525002
-2.05321e-18
0.00525002
-3.30258e-18
0.00525002
-3.19924e-18
0.00525002
-4.63751e-19
0.00525002
-1.58099e-18
0.00525002
-1.2822e-18
0.00525002
5.12455e-19
0.00525002
-4.83486e-18
0.00525002
-2.07947e-19
0.00525002
-1.65553e-18
0.00525002
8.53386e-19
0.00525002
2.27937e-18
0.00525002
1.36372e-18
0.00525002
1.68983e-19
0.00525002
-2.57392e-19
0.00525002
2.87674e-19
0.00525002
1.76606e-18
0.00525002
1.5001e-18
0.00525002
-1.16679e-19
0.00525002
-1.29469e-18
0.00525002
-1.02449e-18
0.00525002
-1.64282e-18
0.00525002
-1.00733e-18
0.00525002
-4.78997e-19
0.00525002
-3.37289e-18
0.00525002
-4.93312e-18
0.00525002
-4.46217e-18
0.00525002
-3.55584e-18
0.00525002
1.23752e-18
0.00525002
-3.51824e-16
0.00525002
-2.13458e-15
0.00525002
8.18126e-14
0.00525002
2.14951e-11
0.00525
3.34434e-09
0.00524741
1.40433e-06
0.000455731
0.00656802
0.00525002
8.3941e-19
0.00525002
1.35779e-18
0.00525002
1.20575e-18
0.00525002
3.03153e-18
0.00525002
9.80017e-19
0.00525002
-1.4569e-18
0.00525002
-2.54703e-18
0.00525002
-2.70458e-18
0.00525002
-1.05201e-18
0.00525002
-4.26269e-19
0.00525002
-7.3226e-19
0.00525002
1.21465e-18
0.00525002
6.10711e-19
0.00525002
-1.25911e-18
0.00525002
-1.09818e-18
0.00525002
4.23516e-21
0.00525002
-3.86829e-19
0.00525002
-3.2399e-20
0.00525002
1.40523e-18
0.00525002
4.23855e-18
0.00525002
1.22079e-18
0.00525002
-5.77676e-19
0.00525002
1.42174e-18
0.00525002
4.04035e-18
0.00525002
4.29446e-18
0.00525002
1.11088e-18
0.00525002
-2.70468e-19
0.00525002
1.52169e-18
0.00525002
3.28141e-18
0.00525002
2.77488e-18
0.00525002
1.03317e-18
0.00525002
-4.49298e-19
0.00525002
1.04016e-18
0.00525002
4.87362e-19
0.00525002
1.11893e-18
0.00525002
2.71951e-20
0.00525002
-1.91345e-18
0.00525002
-4.35375e-18
0.00525002
-1.54414e-18
0.00525002
-1.44165e-18
0.00525002
-3.23058e-18
0.00525002
-6.35885e-17
0.00525002
2.92735e-16
0.00525002
-8.62622e-13
0.00525002
9.86393e-12
0.00525001
2.93455e-10
0.00524985
1.35151e-07
5.63875e-05
0.00537521
0.00525002
1.27055e-19
0.00525002
-1.96385e-18
0.00525002
-2.57858e-18
0.00525002
-1.06811e-18
0.00525002
4.21314e-18
0.00525002
4.12674e-18
0.00525002
3.01883e-18
0.00525002
8.99973e-20
0.00525002
-3.67273e-18
0.00525002
-3.48893e-18
0.00525002
-3.42032e-18
0.00525002
-7.77894e-19
0.00525002
-2.16735e-19
0.00525002
-5.889e-19
0.00525002
-7.86047e-19
0.00525002
-1.14011e-18
0.00525002
-1.08039e-18
0.00525002
-1.87194e-18
0.00525002
-1.71101e-19
0.00525002
1.33672e-18
0.00525002
-4.5401e-18
0.00525002
-3.6829e-18
0.00525002
-2.45216e-18
0.00525002
1.53609e-18
0.00525002
4.6968e-18
0.00525002
-3.67824e-19
0.00525002
-6.0457e-19
0.00525002
-1.23032e-18
0.00525002
3.2272e-19
0.00525002
2.10064e-18
0.00525002
1.15913e-18
0.00525002
-1.60529e-18
0.00525002
1.65807e-19
0.00525002
3.68989e-19
0.00525002
-1.78936e-19
0.00525002
-1.2337e-18
0.00525002
-2.24654e-18
0.00525002
-9.33324e-19
0.00525002
2.93666e-18
0.00525002
-6.33581e-19
0.00525002
-2.68764e-18
0.00525002
-1.14587e-17
0.00525002
2.19876e-16
0.00525002
-5.0076e-13
0.00525002
3.5951e-13
0.00525002
-1.53267e-10
0.00524999
7.51277e-09
2.80147e-06
0.00527095
0.00525002
-2.3844e-18
0.00525002
-1.8387e-18
0.00525002
-2.55635e-18
0.00525002
-2.84772e-18
0.00525002
-2.07269e-18
0.00525002
-4.25211e-19
0.00525002
2.24294e-18
0.00525002
-7.0858e-19
0.00525002
-3.91753e-18
0.00525002
-2.73083e-18
0.00525002
-2.2565e-18
0.00525002
-5.60101e-19
0.00525002
2.3986e-19
0.00525002
1.47257e-18
0.00525002
5.08432e-19
0.00525002
-1.54033e-18
0.00525002
-1.19686e-18
0.00525002
3.0832e-19
0.00525002
-1.27891e-18
0.00525002
-2.53093e-18
0.00525002
-4.92126e-18
0.00525002
-4.53501e-18
0.00525002
-1.85246e-18
0.00525002
-4.82385e-19
0.00525002
-3.99715e-18
0.00525002
9.02514e-19
0.00525002
3.49655e-18
0.00525002
-1.68983e-18
0.00525002
-1.11978e-18
0.00525002
-2.60039e-19
0.00525002
2.85323e-18
0.00525002
2.26158e-18
0.00525002
-4.11129e-19
0.00525002
-1.17568e-18
0.00525002
-1.94436e-18
0.00525002
-1.43741e-18
0.00525002
2.48287e-19
0.00525002
-1.34064e-18
0.00525002
-2.99498e-20
0.00525002
6.00546e-19
0.00525002
2.45121e-18
0.00525002
2.50722e-19
0.00525002
2.22465e-17
0.00525002
-7.01223e-14
0.00525002
-1.1266e-12
0.00525002
-1.93137e-10
0.00525002
1.35228e-10
3.80696e-08
0.00525102
0.00525002
-1.12062e-18
0.00525002
-1.01385e-18
0.00525002
-2.88499e-18
0.00525002
-4.55704e-18
0.00525002
-6.81014e-18
0.00525002
-5.58364e-18
0.00525002
-2.17942e-18
0.00525002
-1.14773e-18
0.00525002
8.98278e-19
0.00525002
-1.08187e-18
0.00525002
-8.16752e-19
0.00525002
-4.28937e-18
0.00525002
-4.21822e-18
0.00525002
-1.35525e-19
0.00525002
-4.97208e-19
0.00525002
1.30916e-18
0.00525002
9.36818e-19
0.00525002
3.70153e-18
0.00525002
-6.83979e-20
0.00525002
-7.55765e-19
0.00525002
-1.14731e-18
0.00525002
2.01255e-18
0.00525002
-1.42302e-19
0.00525002
4.64343e-18
0.00525002
2.14299e-18
0.00525002
4.00308e-18
0.00525002
4.23178e-18
0.00525002
8.42798e-19
0.00525002
1.23328e-18
0.00525002
2.7681e-18
0.00525002
4.64852e-18
0.00525002
6.14946e-18
0.00525002
3.97428e-18
0.00525002
1.53482e-18
0.00525002
1.15451e-18
0.00525002
3.55923e-18
0.00525002
3.34917e-18
0.00525002
2.5699e-18
0.00525002
-3.19755e-20
0.00525002
1.58861e-18
0.00525002
4.27243e-18
0.00525002
1.82536e-18
0.00525002
6.45947e-18
0.00525002
-5.23886e-16
0.00525002
-9.22361e-14
0.00525002
-1.13212e-11
0.00525002
2.99047e-13
1.37617e-10
0.00525003
0.00525002
7.75882e-19
0.00525002
-1.10368e-18
0.00525002
-2.36402e-18
0.00525002
-4.96022e-18
0.00525002
-2.25141e-18
0.00525002
3.64436e-18
0.00525002
3.25261e-19
0.00525002
1.63308e-18
0.00525002
2.3412e-18
0.00525002
6.52808e-18
0.00525002
1.44927e-18
0.00525002
-6.11134e-18
0.00525002
2.04982e-19
0.00525002
-1.23243e-18
0.00525002
-1.09098e-18
0.00525002
-6.28922e-19
0.00525002
-3.22931e-19
0.00525002
2.96377e-18
0.00525002
-1.49713e-18
0.00525002
5.73441e-19
0.00525002
1.55219e-19
0.00525002
3.13148e-18
0.00525002
2.12182e-18
0.00525002
3.29432e-18
0.00525002
1.85754e-18
0.00525002
-3.54589e-19
0.00525002
-8.06799e-20
0.00525002
5.08749e-19
0.00525002
7.89276e-19
0.00525002
-1.21803e-18
0.00525002
-3.25599e-18
0.00525002
1.60439e-18
0.00525002
8.45339e-19
0.00525002
6.53909e-19
0.00525002
1.72435e-18
0.00525002
3.37797e-18
0.00525002
-1.51264e-18
0.00525002
-1.65891e-18
0.00525002
-6.40357e-19
0.00525002
-2.12801e-18
0.00525002
-3.09252e-18
0.00525002
8.50421e-19
0.00525002
3.87263e-18
0.00525002
-1.92176e-17
0.00525002
-8.50015e-17
0.00525002
-5.42079e-14
0.00525002
-1.5628e-13
1.77845e-13
0.00525002
0.00525002
1.17018e-18
0.00525002
1.63054e-18
0.00525002
1.64621e-18
0.00525002
-6.86944e-19
0.00525002
2.21796e-18
0.00525002
4.20806e-18
0.00525002
3.06118e-18
0.00525002
2.20483e-18
0.00525002
3.87941e-18
0.00525002
6.90162e-18
0.00525002
2.11589e-18
0.00525002
3.34154e-18
0.00525002
1.98883e-18
0.00525002
1.89651e-18
0.00525002
4.77303e-19
0.00525002
-1.75505e-18
0.00525002
-1.03423e-18
0.00525002
-7.42636e-19
0.00525002
7.19872e-19
0.00525002
-2.16332e-18
0.00525002
2.15172e-19
0.00525002
1.07139e-18
0.00525002
-4.83868e-19
0.00525002
-1.63139e-18
0.00525002
-1.54372e-18
0.00525002
-3.15435e-18
0.00525002
-2.65291e-18
0.00525002
-1.24429e-18
0.00525002
-2.04135e-18
0.00525002
-4.49266e-18
0.00525002
-4.57482e-18
0.00525002
-5.99869e-18
0.00525002
-2.59107e-18
0.00525002
-1.6424e-18
0.00525002
-1.85924e-18
0.00525002
-2.11081e-18
0.00525002
-4.62649e-18
0.00525002
-5.16351e-18
0.00525002
-3.71509e-18
0.00525002
-3.5262e-18
0.00525002
-5.34986e-18
0.00525002
-1.70254e-18
0.00525002
-1.31269e-18
0.00525002
3.06202e-19
0.00525002
1.38702e-18
0.00525002
-1.24514e-17
0.00525002
-2.88723e-16
1.36687e-16
0.00525002
0.00525002
-2.91273e-19
0.00525002
2.10149e-18
0.00525002
9.77476e-19
0.00525002
3.75066e-18
0.00525002
2.66815e-18
0.00525002
2.58853e-18
0.00525002
5.3668e-18
0.00525002
2.65884e-18
0.00525002
1.2426e-18
0.00525002
-2.09778e-18
0.00525002
-5.32572e-20
0.00525002
3.37119e-18
0.00525002
2.09979e-18
0.00525002
2.84349e-18
0.00525002
3.73626e-18
0.00525002
4.0954e-19
0.00525002
-1.73854e-19
0.00525002
1.32518e-18
0.00525002
6.81014e-19
0.00525002
-5.77676e-19
0.00525002
-1.28918e-18
0.00525002
-1.95326e-18
0.00525002
-5.92923e-19
0.00525002
-5.44642e-19
0.00525002
-3.16875e-18
0.00525002
-4.48673e-18
0.00525002
-4.75694e-18
0.00525002
-3.23143e-18
0.00525002
-1.70677e-18
0.00525002
-4.39398e-19
0.00525002
-1.66061e-18
0.00525002
-3.96581e-18
0.00525002
-3.27632e-18
0.00525002
-9.21148e-19
0.00525002
-1.12147e-18
0.00525002
-2.24803e-18
0.00525002
-5.51927e-18
0.00525002
-2.95953e-18
0.00525002
2.80368e-19
0.00525002
1.18172e-18
0.00525002
-3.21703e-18
0.00525002
-4.21314e-18
0.00525002
-3.25345e-18
0.00525002
-1.43233e-18
0.00525002
4.11764e-19
0.00525002
1.93563e-18
0.00525002
-1.27394e-18
-1.16382e-18
0.00525002
0.00525002
-6.72068e-19
0.00525002
-2.035e-18
0.00525002
3.81809e-19
0.00525002
3.03026e-19
0.00525002
2.77234e-18
0.00525002
3.08659e-18
0.00525002
4.39017e-18
0.00525002
-1.98206e-19
0.00525002
-2.04601e-18
0.00525002
-2.09302e-18
0.00525002
-9.59265e-20
0.00525002
1.85246e-18
0.00525002
8.10611e-19
0.00525002
1.89354e-18
0.00525002
2.42844e-18
0.00525002
1.80333e-18
0.00525002
2.12182e-18
0.00525002
1.03931e-18
0.00525002
-9.55241e-19
0.00525002
-5.79794e-19
0.00525002
-2.58014e-19
0.00525002
1.02089e-18
0.00525002
8.28822e-19
0.00525002
-1.0194e-18
0.00525002
-1.88634e-18
0.00525002
-4.23093e-19
0.00525002
1.47278e-19
0.00525002
-3.78343e-19
0.00525002
-1.86983e-19
0.00525002
4.77938e-19
0.00525002
-1.48866e-18
0.00525002
7.12461e-19
0.00525002
-9.38724e-19
0.00525002
-9.44018e-19
0.00525002
6.63227e-19
0.00525002
3.555e-18
0.00525002
2.46741e-18
0.00525002
2.38355e-18
0.00525002
3.15774e-18
0.00525002
2.13876e-18
0.00525002
4.11489e-18
0.00525002
5.38544e-18
0.00525002
-1.96681e-18
0.00525002
-3.19501e-18
0.00525002
-3.30597e-18
0.00525002
-2.25904e-18
0.00525002
-3.66342e-18
-3.11962e-18
0.00525002
0.00525002
-7.23366e-19
0.00525002
-2.75116e-18
0.00525002
-2.66392e-19
0.00525002
-2.63935e-18
0.00525002
-9.66888e-19
0.00525002
1.02491e-18
0.00525002
-5.94956e-18
0.00525002
-5.38035e-18
0.00525002
-1.30401e-18
0.00525002
-4.77091e-19
0.00525002
8.6355e-19
0.00525002
-1.50179e-18
0.00525002
4.49351e-19
0.00525002
-4.87044e-21
0.00525002
6.97955e-19
0.00525002
3.04762e-18
0.00525002
6.36969e-18
0.00525002
5.2245e-18
0.00525002
1.30274e-18
0.00525002
1.51661e-18
0.00525002
2.25311e-18
0.00525002
2.10064e-18
0.00525002
6.25322e-19
0.00525002
4.99749e-20
0.00525002
3.32969e-18
0.00525002
2.87483e-18
0.00525002
2.55635e-18
0.00525002
8.5868e-19
0.00525002
8.45762e-19
0.00525002
1.33584e-20
0.00525002
-4.67139e-19
0.00525002
5.13641e-18
0.00525002
6.85927e-18
0.00525002
4.92296e-18
0.00525002
4.30462e-18
0.00525002
5.43795e-18
0.00525002
6.75763e-18
0.00525002
3.37627e-18
0.00525002
9.14478e-19
0.00525002
1.99137e-18
0.00525002
8.42628e-18
0.00525002
8.73799e-18
0.00525002
4.4249e-18
0.00525002
-1.21316e-18
0.00525002
-2.57922e-18
0.00525002
-1.58776e-18
0.00525002
-9.04049e-19
1.01813e-18
0.00525002
0.00525002
-4.3421e-19
0.00525002
-9.36818e-19
0.00525002
5.04514e-19
0.00525002
-3.53213e-19
0.00525002
-7.17437e-19