/*--------------------------------*- C++ -*----------------------------------*\
| =========                 |                                                 |
| \\      /  F ield         | OpenFOAM: The Open Source CFD Toolbox           |
|  \\    /   O peration     | Version:  v1912                                 |
|   \\  /    A nd           | Website:  www.openfoam.com                      |
|    \\/     M anipulation  |                                                 |
\*---------------------------------------------------------------------------*/
FoamFile
{
    version     2.0;
    format      ascii;
    class       volVectorField;
    location    "0.01";
    object      U;
}
// * * * * * * * * * * * * * * * * * * * * * * * * * * * * * * * * * * * * * //

dimensions      [0 1 -1 0 0 0 0];


internalField   nonuniform List<vector> 
16128
(
(3 1.26307e-16 0)
(3 3.89991e-16 0)
(3 -2.29994e-16 0)
(3 3.32894e-16 0)
(3 9.25041e-16 0)
(3 2.39968e-15 0)
(3 2.07137e-15 0)
(3 1.04821e-15 0)
(3 1.73906e-15 0)
(3 2.15288e-15 0)
(3 2.35736e-15 0)
(3 6.58887e-16 0)
(3 -4.66876e-16 0)
(3 -8.34726e-16 0)
(3 -1.72119e-15 0)
(3 -1.27024e-16 0)
(3 4.46951e-16 0)
(3 4.38185e-16 0)
(3 3.48251e-16 0)
(3 -1.86102e-15 0)
(3 -1.14484e-15 0)
(3 -1.10978e-15 0)
(3 -6.2146e-16 0)
(3 -1.12113e-15 0)
(3 -1.48622e-15 0)
(3 -3.77522e-16 0)
(3 -1.83256e-16 0)
(3 1.17989e-15 0)
(3 1.63769e-15 0)
(3 1.13878e-16 0)
(3 -2.44301e-16 0)
(3 3.93029e-17 0)
(3 4.29519e-16 0)
(3 6.29644e-16 0)
(3 -6.64792e-16 0)
(3 -8.9445e-16 0)
(3 -1.25556e-15 0)
(3 -2.27299e-15 0)
(3 -1.26092e-15 0)
(3 1.50026e-15 0)
(3 -9.64823e-15 0)
(3 1.12749e-13 0)
(3 -2.25581e-12 0)
(3 -1.83872e-10 0)
(3 -3.04075e-09 0)
(2.99997 9.02652e-08 0)
(2.98646 1.18507e-06 0)
(2.60624 9.89646e-07 0)
(3 1.41823e-15 0)
(3 1.79291e-15 0)
(3 1.36232e-15 0)
(3 1.58141e-15 0)
(3 9.80223e-16 0)
(3 1.68957e-15 0)
(3 4.50785e-16 0)
(3 2.78818e-15 0)
(3 2.95397e-15 0)
(3 2.03749e-15 0)
(3 2.30915e-15 0)
(3 8.78859e-16 0)
(3 1.76312e-15 0)
(3 1.77845e-15 0)
(3 1.81229e-15 0)
(3 4.62705e-15 0)
(3 4.24585e-15 0)
(3 4.68112e-15 0)
(3 3.00921e-15 0)
(3 1.85397e-15 0)
(3 2.34189e-15 0)
(3 2.56658e-15 0)
(3 2.83365e-15 0)
(3 2.09165e-15 0)
(3 2.22034e-15 0)
(3 3.40913e-15 0)
(3 4.49955e-15 0)
(3 7.50269e-15 0)
(3 7.98579e-15 0)
(3 5.70777e-15 0)
(3 4.75721e-15 0)
(3 4.39699e-15 0)
(3 4.14346e-15 0)
(3 4.35373e-15 0)
(3 3.56012e-15 0)
(3 3.27315e-15 0)
(3 3.26567e-15 0)
(3 1.24054e-15 0)
(3 2.2929e-15 0)
(3 1.83094e-15 0)
(3 4.62621e-15 0)
(3 4.82847e-14 0)
(3 -9.11822e-12 0)
(3 -6.83513e-10 0)
(3 -3.70803e-09 0)
(2.99997 3.04419e-07 0)
(2.98649 5.28302e-06 0)
(2.60623 1.34513e-06 0)
(3 5.35131e-16 0)
(3 4.69409e-16 0)
(3 8.73426e-16 0)
(3 -1.27086e-15 0)
(3 -2.00852e-15 0)
(3 -6.05519e-15 0)
(3 -6.24739e-15 0)
(3 -3.67135e-15 0)
(3 -3.37985e-15 0)
(3 -4.47692e-15 0)
(3 -3.76028e-15 0)
(3 -2.4606e-15 0)
(3 1.48374e-15 0)
(3 8.52633e-16 0)
(3 2.41132e-15 0)
(3 2.79557e-15 0)
(3 2.65656e-15 0)
(3 3.02544e-15 0)
(3 -8.87842e-16 0)
(3 -5.05973e-16 0)
(3 -1.05611e-16 0)
(3 1.26839e-15 0)
(3 2.49425e-15 0)
(3 2.11063e-15 0)
(3 2.9163e-15 0)
(3 2.83959e-15 0)
(3 3.78791e-15 0)
(3 2.30986e-15 0)
(3 1.1617e-15 0)
(3 2.03561e-15 0)
(3 2.38488e-15 0)
(3 1.33437e-15 0)
(3 -2.36952e-16 0)
(3 1.39046e-15 0)
(3 3.03736e-15 0)
(3 2.0225e-15 0)
(3 2.93869e-15 0)
(3 2.64798e-15 0)
(3 1.26579e-15 0)
(3 6.57624e-17 0)
(3 1.43346e-14 0)
(3 -1.57299e-13 0)
(3 -6.44129e-12 0)
(3 -7.6938e-10 0)
(3 -2.52346e-09 0)
(2.99997 2.48703e-07 0)
(2.98652 7.91483e-07 0)
(2.60622 5.33734e-07 0)
(3 -1.77638e-15 0)
(3 -2.1063e-15 0)
(3 -1.59132e-15 0)
(3 -1.91008e-15 0)
(3 1.87578e-16 0)
(3 1.37234e-15 0)
(3 2.73642e-16 0)
(3 -3.29448e-15 0)
(3 -2.81408e-15 0)
(3 -2.15676e-15 0)
(3 -1.71647e-15 0)
(3 -5.98912e-16 0)
(3 -2.8711e-15 0)
(3 -4.30448e-15 0)
(3 -4.00267e-15 0)
(3 -6.15634e-15 0)
(3 -3.64619e-15 0)
(3 -3.60177e-15 0)
(3 -4.66788e-15 0)
(3 -4.59817e-15 0)
(3 -3.9948e-15 0)
(3 -3.87402e-15 0)
(3 -4.41367e-15 0)
(3 -5.07977e-15 0)
(3 -4.4281e-15 0)
(3 -3.95406e-15 0)
(3 -5.06545e-15 0)
(3 -4.47113e-15 0)
(3 -4.21759e-15 0)
(3 -4.45582e-15 0)
(3 -6.02646e-15 0)
(3 -5.50581e-15 0)
(3 -4.64428e-15 0)
(3 -5.55861e-15 0)
(3 -4.82483e-15 0)
(3 -5.61e-15 0)
(3 -6.8914e-15 0)
(3 -6.74349e-15 0)
(3 -7.09406e-15 0)
(3 -3.18758e-15 0)
(3 -1.51278e-14 0)
(3 -1.48984e-13 0)
(3 -1.7921e-12 0)
(3 -3.94561e-10 0)
(3 -8.42897e-10 0)
(2.99997 1.07664e-07 0)
(2.98651 -4.4123e-07 0)
(2.60623 1.65505e-06 0)
(3 6.70835e-16 0)
(3 4.388e-16 0)
(3 6.90404e-16 0)
(3 1.21415e-15 0)
(3 1.5207e-15 0)
(3 8.8997e-16 0)
(3 -4.99181e-17 0)
(3 -1.35164e-15 0)
(3 -2.48253e-16 0)
(3 4.29984e-15 0)
(3 3.02496e-15 0)
(3 1.99982e-15 0)
(3 8.13938e-16 0)
(3 -3.67352e-16 0)
(3 9.63546e-17 0)
(3 2.84781e-15 0)
(3 2.84767e-15 0)
(3 3.64626e-15 0)
(3 5.46228e-15 0)
(3 4.98527e-15 0)
(3 5.24669e-15 0)
(3 5.03657e-15 0)
(3 1.11979e-15 0)
(3 2.50263e-15 0)
(3 2.7333e-15 0)
(3 3.96166e-15 0)
(3 2.85722e-15 0)
(3 2.67398e-15 0)
(3 4.14046e-15 0)
(3 5.34487e-15 0)
(3 3.93646e-15 0)
(3 4.45701e-15 0)
(3 4.70111e-15 0)
(3 3.80333e-15 0)
(3 3.00533e-15 0)
(3 4.17523e-15 0)
(3 2.95915e-15 0)
(3 1.4909e-15 0)
(3 2.22415e-15 0)
(3 1.68341e-15 0)
(3 -4.81038e-15 0)
(3 1.73056e-15 0)
(3 -1.34817e-12 0)
(3 -2.4469e-11 0)
(3 2.08285e-10 0)
(2.99997 1.03972e-07 0)
(2.98652 2.01688e-06 0)
(2.60623 1.32906e-06 0)
(3 -2.66284e-16 0)
(3 2.12352e-15 0)
(3 1.38539e-15 0)
(3 2.19444e-17 0)
(3 -6.99992e-16 0)
(3 -1.07017e-15 0)
(3 3.29224e-17 0)
(3 -5.58523e-16 0)
(3 -7.09592e-16 0)
(3 2.57052e-16 0)
(3 -1.42095e-17 0)
(3 1.94569e-16 0)
(3 5.19379e-17 0)
(3 1.27567e-15 0)
(3 6.0011e-16 0)
(3 2.13847e-15 0)
(3 1.8247e-15 0)
(3 9.12696e-16 0)
(3 2.14999e-15 0)
(3 1.6636e-15 0)
(3 -1.6503e-16 0)
(3 2.14932e-16 0)
(3 4.48371e-15 0)
(3 4.49215e-15 0)
(3 3.62252e-15 0)
(3 2.3091e-15 0)
(3 1.00798e-15 0)
(3 -1.67413e-16 0)
(3 1.28404e-16 0)
(3 9.4932e-16 0)
(3 1.02157e-15 0)
(3 6.05544e-16 0)
(3 -2.93431e-16 0)
(3 4.79662e-16 0)
(3 1.01417e-15 0)
(3 1.07196e-15 0)
(3 1.23192e-15 0)
(3 -1.25206e-16 0)
(3 -2.03539e-16 0)
(3 -9.98039e-18 0)
(3 1.20362e-14 0)
(3 2.36797e-13 0)
(3 -2.71628e-12 0)
(3 1.19268e-10 0)
(3 3.46385e-10 0)
(2.99997 1.55192e-07 0)
(2.98655 9.71747e-07 0)
(2.60622 6.959e-08 0)
(3 -6.58735e-16 0)
(3 -1.22907e-15 0)
(3 7.10904e-16 0)
(3 1.46295e-15 0)
(3 4.16521e-15 0)
(3 2.36811e-15 0)
(3 1.74571e-15 0)
(3 2.94506e-15 0)
(3 1.8214e-15 0)
(3 -9.77627e-16 0)
(3 -4.10407e-16 0)
(3 4.66095e-17 0)
(3 1.02551e-15 0)
(3 2.35486e-15 0)
(3 1.97008e-15 0)
(3 -7.58783e-16 0)
(3 -1.76904e-15 0)
(3 -2.5321e-15 0)
(3 -1.93971e-15 0)
(3 -4.53716e-16 0)
(3 -2.51501e-15 0)
(3 -1.58062e-15 0)
(3 2.58321e-16 0)
(3 6.10589e-16 0)
(3 1.95986e-15 0)
(3 -1.07991e-15 0)
(3 1.12856e-16 0)
(3 -5.52396e-16 0)
(3 -2.29777e-15 0)
(3 -1.87616e-15 0)
(3 -2.12183e-15 0)
(3 -2.08363e-15 0)
(3 -2.46242e-15 0)
(3 -2.26614e-15 0)
(3 -1.01997e-15 0)
(3 -1.78659e-15 0)
(3 -8.17491e-16 0)
(3 -1.13321e-15 0)
(3 -1.43222e-15 0)
(3 8.11137e-16 0)
(3 -2.19962e-14 0)
(3 2.72343e-13 0)
(3 -2.51788e-12 0)
(3 1.20002e-10 0)
(3 6.87889e-10 0)
(2.99997 1.69887e-07 0)
(2.98655 -1.97094e-07 0)
(2.60622 -1.32754e-06 0)
(3 2.08084e-15 0)
(3 1.66854e-16 0)
(3 7.13699e-16 0)
(3 2.26689e-15 0)
(3 1.21011e-15 0)
(3 1.2548e-15 0)
(3 5.36224e-16 0)
(3 2.18391e-15 0)
(3 3.64858e-15 0)
(3 1.86654e-15 0)
(3 1.58988e-15 0)
(3 2.65303e-16 0)
(3 1.39356e-16 0)
(3 -1.00263e-15 0)
(3 -5.88113e-16 0)
(3 3.75739e-17 0)
(3 -1.37379e-17 0)
(3 2.35608e-16 0)
(3 3.5396e-16 0)
(3 1.45004e-15 0)
(3 2.39007e-15 0)
(3 1.88886e-15 0)
(3 -1.57916e-15 0)
(3 -1.03244e-15 0)
(3 -1.36342e-15 0)
(3 -1.55586e-15 0)
(3 -8.89897e-17 0)
(3 9.52116e-16 0)
(3 -2.27878e-16 0)
(3 -6.80404e-16 0)
(3 -1.54114e-16 0)
(3 -6.75052e-17 0)
(3 9.62605e-16 0)
(3 1.3766e-15 0)
(3 7.80353e-16 0)
(3 1.62268e-15 0)
(3 1.97818e-15 0)
(3 3.67697e-15 0)
(3 3.65861e-15 0)
(3 2.37998e-15 0)
(3 3.09722e-15 0)
(3 -1.82161e-14 0)
(3 4.06664e-13 0)
(3 3.99835e-11 0)
(3 5.65834e-10 0)
(2.99997 2.3656e-07 0)
(2.98655 8.89875e-07 0)
(2.60622 -1.12346e-06 0)
(3 1.51697e-15 0)
(3 5.78031e-15 0)
(3 1.2642e-15 0)
(3 -4.94082e-16 0)
(3 -5.03892e-15 0)
(3 -3.19873e-15 0)
(3 -1.73179e-15 0)
(3 -2.59095e-15 0)
(3 -2.38471e-15 0)
(3 1.04293e-15 0)
(3 2.92333e-15 0)
(3 2.53784e-15 0)
(3 4.94807e-16 0)
(3 -4.6609e-16 0)
(3 -2.15005e-15 0)
(3 -2.44595e-15 0)
(3 -2.15899e-15 0)
(3 -1.03655e-15 0)
(3 -1.93329e-15 0)
(3 -2.80213e-15 0)
(3 -6.59563e-16 0)
(3 -1.57503e-15 0)
(3 -2.28015e-15 0)
(3 -3.66636e-15 0)
(3 -4.41793e-15 0)
(3 -2.7604e-15 0)
(3 -3.739e-15 0)
(3 -2.95358e-15 0)
(3 -1.39054e-15 0)
(3 -2.39108e-15 0)
(3 -2.35278e-17 0)
(3 -2.18494e-15 0)
(3 -1.17646e-15 0)
(3 -9.88195e-16 0)
(3 -2.17482e-15 0)
(3 -1.69626e-15 0)
(3 -1.79528e-15 0)
(3 -1.12416e-15 0)
(3 -1.76736e-15 0)
(3 -4.16174e-15 0)
(3 1.93755e-14 0)
(3 1.9866e-13 0)
(3 4.72501e-12 0)
(3 4.31799e-12 0)
(3 2.30187e-11 0)
(2.99997 3.47006e-07 0)
(2.98655 -4.18281e-07 0)
(2.60621 -1.88882e-06 0)
(3 -2.99985e-15 0)
(3 -2.00882e-15 0)
(3 -2.10323e-15 0)
(3 -3.66304e-15 0)
(3 -1.66117e-15 0)
(3 -3.93352e-15 0)
(3 -2.45508e-15 0)
(3 -9.64717e-16 0)
(3 -1.71486e-15 0)
(3 -1.88929e-15 0)
(3 3.38309e-17 0)
(3 2.32815e-16 0)
(3 5.13479e-17 0)
(3 -2.09778e-16 0)
(3 -1.93122e-16 0)
(3 -1.98331e-15 0)
(3 -3.989e-15 0)
(3 -3.06789e-15 0)
(3 -2.995e-15 0)
(3 -3.13269e-15 0)
(3 -3.78008e-15 0)
(3 -2.55691e-15 0)
(3 -3.53629e-15 0)
(3 -3.54162e-15 0)
(3 -2.17942e-15 0)
(3 -1.24991e-15 0)
(3 -2.41961e-15 0)
(3 -3.48295e-15 0)
(3 -2.44175e-15 0)
(3 -1.98972e-15 0)
(3 -2.81078e-15 0)
(3 -3.01727e-15 0)
(3 -4.02498e-15 0)
(3 -4.28088e-15 0)
(3 -3.52084e-15 0)
(3 -4.30169e-15 0)
(3 -3.27885e-15 0)
(3 -7.62106e-16 0)
(3 -2.46005e-16 0)
(3 -9.40943e-16 0)
(3 -9.2539e-15 0)
(3 -9.85203e-15 0)
(3 6.59309e-12 0)
(3 1.25253e-10 0)
(3 6.74717e-10 0)
(2.99997 2.54685e-07 0)
(2.98652 -1.38738e-06 0)
(2.60622 -2.17983e-06 0)
(3 1.05196e-15 0)
(3 -4.16492e-15 0)
(3 -3.1204e-15 0)
(3 -1.83659e-15 0)
(3 -1.06262e-15 0)
(3 1.02535e-15 0)
(3 1.29214e-15 0)
(3 1.01463e-15 0)
(3 2.39669e-15 0)
(3 -8.65734e-16 0)
(3 -1.70064e-15 0)
(3 -1.77761e-15 0)
(3 -1.18111e-15 0)
(3 -3.42611e-16 0)
(3 2.85604e-16 0)
(3 6.81582e-16 0)
(3 3.34103e-15 0)
(3 2.67137e-15 0)
(3 3.52578e-15 0)
(3 4.47167e-15 0)
(3 3.18582e-15 0)
(3 1.84235e-15 0)
(3 6.26288e-16 0)
(3 -1.20935e-15 0)
(3 -2.36719e-15 0)
(3 -4.51479e-15 0)
(3 -3.12653e-15 0)
(3 -2.59017e-15 0)
(3 -1.64839e-15 0)
(3 -8.62775e-16 0)
(3 -2.67233e-15 0)
(3 -2.06933e-15 0)
(3 -2.34314e-15 0)
(3 -1.9322e-15 0)
(3 -2.25704e-15 0)
(3 -1.62377e-15 0)
(3 6.10569e-16 0)
(3 6.3395e-16 0)
(3 -1.11627e-16 0)
(3 -1.38904e-15 0)
(3 -1.06666e-14 0)
(3 -2.54607e-13 0)
(3 -5.20546e-13 0)
(3 2.06098e-10 0)
(3 2.38329e-09 0)
(2.99997 -1.09489e-07 0)
(2.98652 7.21397e-07 0)
(2.60622 -4.99558e-06 0)
(3 8.93038e-16 0)
(3 -1.15432e-15 0)
(3 -4.96605e-16 0)
(3 3.23534e-16 0)
(3 1.77528e-15 0)
(3 1.16565e-15 0)
(3 -1.29261e-16 0)
(3 -1.38977e-16 0)
(3 -1.17665e-15 0)
(3 -5.12211e-17 0)
(3 -1.1574e-15 0)
(3 8.99467e-16 0)
(3 1.41226e-15 0)
(3 3.82698e-15 0)
(3 3.58813e-15 0)
(3 1.4153e-15 0)
(3 1.68215e-15 0)
(3 8.16616e-16 0)
(3 1.68549e-15 0)
(3 9.28677e-16 0)
(3 1.86343e-16 0)
(3 1.47118e-16 0)
(3 2.42822e-15 0)
(3 2.54115e-15 0)
(3 2.00099e-15 0)
(3 1.39342e-16 0)
(3 6.56782e-16 0)
(3 2.28175e-15 0)
(3 1.83924e-15 0)
(3 7.25105e-16 0)
(3 1.04043e-15 0)
(3 5.60986e-16 0)
(3 1.0286e-15 0)
(3 1.4408e-15 0)
(3 1.20753e-15 0)
(3 2.98439e-16 0)
(3 -6.90179e-17 0)
(3 5.26815e-17 0)
(3 3.82708e-16 0)
(3 -1.61591e-15 0)
(3 -6.7779e-15 0)
(3 2.29909e-14 0)
(3 -5.14928e-12 0)
(3 -1.70418e-12 0)
(3 -5.67871e-10 0)
(2.99997 -5.3438e-07 0)
(2.98655 -9.94952e-07 0)
(2.60621 -1.10794e-06 0)
(3 1.94239e-16 0)
(3 6.93478e-16 0)
(3 -1.66239e-15 0)
(3 -2.00238e-15 0)
(3 -9.90675e-16 0)
(3 -1.31481e-15 0)
(3 -8.77669e-17 0)
(3 -3.89982e-16 0)
(3 -1.42886e-15 0)
(3 -1.55717e-15 0)
(3 -4.22088e-15 0)
(3 -2.66447e-15 0)
(3 -1.67718e-15 0)
(3 -2.88437e-16 0)
(3 -3.17508e-16 0)
(3 1.13121e-15 0)
(3 -1.69422e-15 0)
(3 -1.45767e-15 0)
(3 -4.08662e-15 0)
(3 -4.68222e-15 0)
(3 -3.15613e-15 0)
(3 7.42809e-16 0)
(3 5.73577e-16 0)
(3 2.70596e-15 0)
(3 1.87383e-15 0)
(3 4.6033e-15 0)
(3 3.4944e-15 0)
(3 2.02715e-15 0)
(3 2.99443e-16 0)
(3 -7.60694e-16 0)
(3 2.51876e-15 0)
(3 2.7562e-15 0)
(3 4.11102e-15 0)
(3 2.14152e-15 0)
(3 9.96663e-16 0)
(3 2.38143e-16 0)
(3 -1.24879e-15 0)
(3 -8.73707e-16 0)
(3 5.88147e-16 0)
(3 7.83711e-16 0)
(3 3.5453e-15 0)
(3 4.74755e-14 0)
(3 -1.80944e-12 0)
(3 -1.89752e-10 0)
(3 -4.89555e-09 0)
(2.99997 -2.79619e-07 0)
(2.98653 -3.75269e-06 0)
(2.60663 0.000175283 0)
(3 1.9255e-17 0)
(3 1.12642e-15 0)
(3 -8.35969e-16 0)
(3 -7.02771e-16 0)
(3 -2.19845e-15 0)
(3 -1.46183e-15 0)
(3 -1.37007e-16 0)
(3 -1.93118e-15 0)
(3 2.86943e-16 0)
(3 -2.92831e-16 0)
(3 -1.485e-16 0)
(3 -3.46744e-15 0)
(3 -3.70118e-15 0)
(3 -2.16641e-15 0)
(3 -5.79882e-16 0)
(3 7.25931e-16 0)
(3 6.81254e-16 0)
(3 -8.64357e-16 0)
(3 -1.63246e-15 0)
(3 -1.36348e-15 0)
(3 -1.52222e-16 0)
(3 5.07442e-16 0)
(3 -6.46608e-16 0)
(3 -1.12553e-15 0)
(3 -1.07162e-15 0)
(3 4.07942e-16 0)
(3 9.75779e-16 0)
(3 -1.40039e-15 0)
(3 -6.39614e-16 0)
(3 1.79758e-16 0)
(3 -8.06071e-16 0)
(3 1.90627e-16 0)
(3 -7.39993e-16 0)
(3 9.27274e-17 0)
(3 2.57323e-16 0)
(3 4.27133e-16 0)
(3 9.42453e-16 0)
(3 -1.20032e-15 0)
(3 5.67996e-16 0)
(3 2.43272e-15 0)
(3 6.22692e-15 0)
(3 -8.90526e-14 0)
(3 2.76091e-12 0)
(3 5.40829e-12 0)
(3 -3.07473e-09 0)
(2.99997 2.12423e-07 0)
(2.98664 -0.000103966 0)
(2.61855 0.00565347 0)
(3 -1.86314e-15 0)
(3 -2.72598e-15 0)
(3 1.48682e-15 0)
(3 2.66857e-15 0)
(3 4.67529e-15 0)
(3 1.67158e-15 0)
(3 -2.35669e-16 0)
(3 1.56923e-15 0)
(3 6.84203e-16 0)
(3 -5.82478e-16 0)
(3 9.54658e-17 0)
(3 1.61892e-15 0)
(3 4.89168e-16 0)
(3 -1.45205e-16 0)
(3 1.68063e-15 0)
(3 -1.43701e-15 0)
(3 1.3179e-16 0)
(3 8.75589e-17 0)
(3 1.7713e-15 0)
(3 3.59278e-15 0)
(3 7.71918e-16 0)
(3 -2.74269e-15 0)
(3 -5.27841e-15 0)
(3 -4.82751e-15 0)
(3 -3.35109e-15 0)
(3 -4.02044e-15 0)
(3 -4.00392e-15 0)
(3 -2.05948e-15 0)
(3 -1.34119e-15 0)
(3 -2.23921e-15 0)
(3 -3.2698e-15 0)
(3 -3.91526e-15 0)
(3 -3.16536e-15 0)
(3 -2.38777e-15 0)
(3 -8.91597e-16 0)
(3 -1.39576e-15 0)
(3 -2.53537e-17 0)
(3 6.60573e-16 0)
(3 3.28214e-16 0)
(3 1.38119e-17 0)
(3 7.05424e-15 0)
(3 -1.66e-13 0)
(3 5.3357e-12 0)
(3 2.17263e-10 0)
(3 8.77218e-09 0)
(2.99997 1.09761e-06 0)
(2.9873 -0.000833365 0)
(2.71548 0.0554323 0)
(3 1.56178e-15 0)
(3 4.50293e-16 0)
(3 1.93573e-15 0)
(3 4.26873e-16 0)
(3 -9.82128e-17 0)
(3 1.06015e-15 0)
(3 1.39945e-15 0)
(3 2.39995e-16 0)
(3 5.79796e-16 0)
(3 1.4749e-15 0)
(3 2.46431e-15 0)
(3 3.40733e-15 0)
(3 3.89622e-15 0)
(3 1.63202e-15 0)
(3 1.26455e-16 0)
(3 -1.10999e-15 0)
(3 -1.32755e-15 0)
(3 2.9604e-16 0)
(3 1.12349e-15 0)
(3 1.0799e-15 0)
(3 2.28968e-15 0)
(3 2.68052e-15 0)
(3 1.76847e-15 0)
(3 9.07701e-16 0)
(3 9.86897e-16 0)
(3 5.75346e-16 0)
(3 1.03658e-15 0)
(3 2.08195e-15 0)
(3 1.51779e-15 0)
(3 1.97099e-15 0)
(3 3.2471e-15 0)
(3 3.07255e-15 0)
(3 1.57156e-15 0)
(3 1.05364e-15 0)
(3 1.0103e-15 0)
(3 1.29724e-15 0)
(3 3.68238e-15 0)
(3 2.41738e-15 0)
(3 1.46139e-15 0)
(3 1.48814e-16 0)
(3 6.32411e-15 0)
(3 -1.18511e-13 0)
(3 1.49173e-12 0)
(3 1.64085e-10 0)
(3 2.13165e-08 0)
(2.99998 5.30525e-07 0)
(2.98754 0.000318019 0)
(2.9659 0.201366 0)
(3 2.48721e-16 0)
(3 3.06189e-16 0)
(3 -1.07733e-15 0)
(3 -1.62623e-15 0)
(3 -2.24679e-15 0)
(3 -1.34947e-15 0)
(3 -1.17363e-15 0)
(3 -8.50168e-16 0)
(3 4.80131e-16 0)
(3 1.40973e-15 0)
(3 1.20953e-15 0)
(3 -3.78904e-16 0)
(3 -2.24369e-15 0)
(3 -3.12169e-15 0)
(3 -2.57253e-15 0)
(3 -7.41327e-16 0)
(3 -1.71816e-15 0)
(3 -1.69009e-15 0)
(3 -2.53931e-15 0)
(3 -3.27711e-15 0)
(3 -1.3812e-15 0)
(3 -8.69737e-16 0)
(3 3.78803e-16 0)
(3 8.19732e-16 0)
(3 5.38278e-16 0)
(3 2.19369e-16 0)
(3 4.31713e-16 0)
(3 -5.23271e-17 0)
(3 5.32922e-16 0)
(3 1.42746e-15 0)
(3 2.33721e-16 0)
(3 -1.39507e-16 0)
(3 -1.20485e-15 0)
(3 -9.30295e-16 0)
(3 -6.3559e-16 0)
(3 -1.39226e-16 0)
(3 -9.61647e-16 0)
(3 -1.44244e-15 0)
(3 -6.99376e-16 0)
(3 -8.27294e-16 0)
(3 5.28993e-15 0)
(3 -1.42003e-13 0)
(3 -9.17492e-14 0)
(3 -1.38033e-10 0)
(3 1.25945e-08 0)
(2.99999 3.70592e-07 0)
(2.99633 3.32821e-05 0)
(2.58846 0.195695 0)
(3 4.61405e-17 0)
(3 1.29948e-15 0)
(3 9.73569e-16 0)
(3 7.44073e-16 0)
(3 2.65601e-16 0)
(3 -4.29053e-15 0)
(3 -4.20952e-15 0)
(3 -1.83705e-15 0)
(3 -6.0947e-17 0)
(3 5.87365e-16 0)
(3 3.27362e-16 0)
(3 1.18952e-15 0)
(3 2.22733e-16 0)
(3 -9.26168e-16 0)
(3 -8.81397e-16 0)
(3 -9.59425e-17 0)
(3 -2.1453e-16 0)
(3 8.75321e-16 0)
(3 6.44393e-16 0)
(3 2.65741e-15 0)
(3 1.46253e-15 0)
(3 -7.74858e-16 0)
(3 8.52188e-16 0)
(3 2.08309e-15 0)
(3 1.24486e-15 0)
(3 2.66661e-16 0)
(3 -5.25828e-16 0)
(3 5.73892e-16 0)
(3 1.68421e-15 0)
(3 4.78509e-16 0)
(3 -1.5431e-16 0)
(3 -1.09167e-15 0)
(3 1.01283e-16 0)
(3 -6.8045e-16 0)
(3 -2.5834e-16 0)
(3 -3.32063e-16 0)
(3 -2.46503e-15 0)
(3 -3.89437e-15 0)
(3 -4.13556e-15 0)
(3 -3.50269e-15 0)
(3 -3.16269e-15 0)
(3 -1.16778e-13 0)
(3 1.56016e-12 0)
(3 -2.77043e-10 0)
(3 2.63093e-09 0)
(3 -1.62211e-07 0)
(2.99944 6.01891e-05 0)
(2.87334 0.0438798 0)
(3 7.68346e-16 0)
(3 9.08618e-17 0)
(3 2.4327e-16 0)
(3 2.82061e-15 0)
(3 1.74073e-15 0)
(3 3.78173e-16 0)
(3 1.89309e-16 0)
(3 -9.43541e-16 0)
(3 -1.29955e-15 0)
(3 -1.25272e-15 0)
(3 -1.40601e-15 0)
(3 -8.59044e-17 0)
(3 1.88121e-16 0)
(3 -6.27076e-16 0)
(3 -5.63077e-16 0)
(3 8.13635e-17 0)
(3 -1.38234e-16 0)
(3 -2.13305e-16 0)
(3 1.8217e-15 0)
(3 1.9618e-15 0)
(3 -3.60327e-16 0)
(3 -2.84526e-17 0)
(3 5.12609e-16 0)
(3 2.22514e-15 0)
(3 3.32527e-15 0)
(3 8.09784e-16 0)
(3 9.25009e-17 0)
(3 8.53433e-16 0)
(3 1.77066e-15 0)
(3 2.53837e-15 0)
(3 1.19628e-15 0)
(3 1.25746e-15 0)
(3 9.97475e-16 0)
(3 1.08823e-15 0)
(3 1.31909e-15 0)
(3 3.02097e-16 0)
(3 3.98932e-16 0)
(3 7.22171e-16 0)
(3 2.39901e-15 0)
(3 -5.65527e-16 0)
(3 -8.00696e-16 0)
(3 -1.87028e-14 0)
(3 4.17802e-13 0)
(3 -2.26484e-10 0)
(3 2.71059e-10 0)
(3 -1.13284e-07 0)
(2.99995 7.16416e-06 0)
(2.98716 0.00287881 0)
(3 -1.7103e-15 0)
(3 -2.14503e-15 0)
(3 -1.74772e-15 0)
(3 -9.14665e-16 0)
(3 3.11591e-15 0)
(3 6.35491e-15 0)
(3 6.31885e-15 0)
(3 2.95224e-15 0)
(3 -2.57401e-15 0)
(3 -2.39357e-15 0)
(3 -2.148e-15 0)
(3 -5.11532e-16 0)
(3 -1.53592e-16 0)
(3 7.19715e-17 0)
(3 -1.97977e-16 0)
(3 -1.37249e-15 0)
(3 -1.2186e-15 0)
(3 -3.61304e-15 0)
(3 -1.44275e-15 0)
(3 -1.857e-15 0)
(3 -4.72537e-15 0)
(3 -4.59963e-15 0)
(3 -4.68047e-15 0)
(3 -5.06042e-15 0)
(3 -4.70485e-15 0)
(3 -3.62614e-15 0)
(3 -1.3933e-15 0)
(3 -2.0815e-15 0)
(3 -3.60876e-15 0)
(3 -2.13211e-15 0)
(3 -1.5545e-15 0)
(3 -1.42216e-15 0)
(3 -3.25051e-15 0)
(3 -2.20075e-15 0)
(3 -3.43252e-15 0)
(3 -2.03684e-15 0)
(3 -1.43129e-15 0)
(3 -1.9276e-15 0)
(3 7.44585e-16 0)
(3 -1.6432e-16 0)
(3 -2.65024e-15 0)
(3 -3.1527e-15 0)
(3 9.66244e-14 0)
(3 -4.54643e-11 0)
(3 -6.14815e-11 0)
(3 -4.28946e-08 0)
(3 2.12506e-07 0)
(2.99961 9.78848e-05 0)
(3 -1.19839e-15 0)
(3 -3.27873e-17 0)
(3 -9.96836e-16 0)
(3 -2.10092e-15 0)
(3 -2.71281e-15 0)
(3 -2.0383e-15 0)
(3 -7.76724e-16 0)
(3 -1.71624e-15 0)
(3 -4.12916e-16 0)
(3 -9.13974e-16 0)
(3 -5.87527e-16 0)
(3 -4.45985e-16 0)
(3 1.65715e-16 0)
(3 1.51173e-15 0)
(3 7.22431e-16 0)
(3 -9.649e-17 0)
(3 -2.59009e-17 0)
(3 1.66776e-15 0)
(3 9.25201e-17 0)
(3 -1.28414e-15 0)
(3 -1.59665e-15 0)
(3 -7.63246e-16 0)
(3 -3.69211e-16 0)
(3 2.25076e-15 0)
(3 1.44788e-17 0)
(3 2.2799e-15 0)
(3 3.06859e-15 0)
(3 4.68545e-17 0)
(3 3.81984e-16 0)
(3 2.04586e-15 0)
(3 3.69895e-15 0)
(3 4.17001e-15 0)
(3 1.09909e-15 0)
(3 -1.21319e-16 0)
(3 -4.38776e-16 0)
(3 2.00453e-16 0)
(3 1.76667e-15 0)
(3 5.54326e-16 0)
(3 -6.60833e-16 0)
(3 8.59878e-16 0)
(3 2.16414e-15 0)
(3 8.16581e-16 0)
(3 4.57754e-15 0)
(3 -2.3599e-12 0)
(3 -2.41306e-11 0)
(3 -5.85158e-09 0)
(3 1.92024e-10 0)
(3 7.9955e-07 0)
(3 -1.32107e-16 0)
(3 -1.09424e-15 0)
(3 -1.65774e-15 0)
(3 -3.27513e-15 0)
(3 -6.35918e-15 0)
(3 -4.32877e-15 0)
(3 -1.33996e-15 0)
(3 5.30018e-16 0)
(3 1.04361e-15 0)
(3 -1.25131e-16 0)
(3 -2.55772e-16 0)
(3 -3.9842e-15 0)
(3 -4.91951e-15 0)
(3 -3.4422e-15 0)
(3 -1.77216e-15 0)
(3 9.76036e-16 0)
(3 9.96219e-16 0)
(3 2.36827e-15 0)
(3 -2.30252e-16 0)
(3 4.20479e-16 0)
(3 -3.19639e-17 0)
(3 2.46285e-15 0)
(3 2.14659e-15 0)
(3 2.57419e-15 0)
(3 2.15485e-15 0)
(3 1.8176e-15 0)
(3 1.5353e-15 0)
(3 1.0388e-15 0)
(3 9.65039e-16 0)
(3 6.82246e-16 0)
(3 1.14057e-15 0)
(3 2.43325e-15 0)
(3 4.91184e-15 0)
(3 3.39015e-15 0)
(3 4.4801e-15 0)
(3 3.22797e-15 0)
(3 2.20453e-15 0)
(3 3.60924e-15 0)
(3 1.77162e-15 0)
(3 1.07665e-15 0)
(3 2.70384e-15 0)
(3 1.26028e-15 0)
(3 3.8214e-15 0)
(3 -2.41609e-14 0)
(3 -8.90108e-13 0)
(3 -1.34494e-10 0)
(3 -2.44169e-11 0)
(3 1.6605e-09 0)
(3 1.0647e-15 0)
(3 -2.05874e-16 0)
(3 3.52535e-16 0)
(3 -2.0605e-15 0)
(3 5.05755e-16 0)
(3 3.05453e-15 0)
(3 1.44569e-15 0)
(3 1.13967e-15 0)
(3 1.78032e-15 0)
(3 4.3245e-15 0)
(3 3.51446e-15 0)
(3 2.01086e-15 0)
(3 4.70786e-16 0)
(3 8.73489e-17 0)
(3 -4.63876e-16 0)
(3 -1.57713e-15 0)
(3 -2.03433e-15 0)
(3 -2.74857e-15 0)
(3 -2.39126e-15 0)
(3 -1.64613e-15 0)
(3 3.99561e-16 0)
(3 9.71218e-16 0)
(3 5.701e-16 0)
(3 -1.68062e-15 0)
(3 -1.43148e-15 0)
(3 -2.02293e-15 0)
(3 -1.47962e-15 0)
(3 -5.44622e-16 0)
(3 -1.16186e-15 0)
(3 -5.87434e-15 0)
(3 -6.13318e-15 0)
(3 -4.3471e-15 0)
(3 -9.04966e-16 0)
(3 -7.20656e-16 0)
(3 -5.79211e-16 0)
(3 2.81881e-16 0)
(3 -2.49749e-15 0)
(3 -2.32249e-15 0)
(3 -1.16285e-15 0)
(3 -2.15676e-15 0)
(3 -2.3644e-15 0)
(3 -2.10321e-16 0)
(3 3.3876e-16 0)
(3 3.21849e-16 0)
(3 -5.36138e-15 0)
(3 -2.91534e-13 0)
(3 -1.11684e-12 0)
(3 1.12628e-12 0)
(3 2.29265e-16 0)
(3 2.18675e-15 0)
(3 1.63765e-15 0)
(3 2.01721e-15 0)
(3 1.77098e-15 0)
(3 1.39957e-15 0)
(3 2.35789e-15 0)
(3 1.55084e-15 0)
(3 3.55707e-15 0)
(3 2.43883e-15 0)
(3 4.62431e-16 0)
(3 1.61758e-15 0)
(3 1.50157e-15 0)
(3 1.8269e-15 0)
(3 2.50035e-15 0)
(3 -9.52573e-16 0)
(3 -3.51073e-16 0)
(3 1.15578e-15 0)
(3 1.26947e-15 0)
(3 -6.13306e-16 0)
(3 -2.98665e-16 0)
(3 -1.34515e-15 0)
(3 -1.09221e-15 0)
(3 -4.08898e-16 0)
(3 -7.08134e-16 0)
(3 -1.66684e-15 0)
(3 -1.77111e-15 0)
(3 -2.94606e-15 0)
(3 -1.21765e-15 0)
(3 -8.24149e-16 0)
(3 -1.16174e-15 0)
(3 -2.87432e-15 0)
(3 -1.79382e-15 0)
(3 -8.00596e-16 0)
(3 -1.30365e-15 0)
(3 -2.81927e-15 0)
(3 -3.48496e-15 0)
(3 -5.52297e-15 0)
(3 -4.59017e-15 0)
(3 -1.69034e-15 0)
(3 -3.53784e-15 0)
(3 -1.97409e-15 0)
(3 -1.60893e-15 0)
(3 4.12783e-17 0)
(3 1.0923e-15 0)
(3 2.01072e-15 0)
(3 -4.70491e-16 0)
(3 8.52594e-15 0)
(3 -5.37363e-16 0)
(3 -9.16897e-17 0)
(3 2.88451e-16 0)
(3 2.34484e-15 0)
(3 1.59392e-15 0)
(3 1.81113e-15 0)
(3 3.36802e-15 0)
(3 1.26487e-15 0)
(3 -9.17334e-16 0)
(3 -2.18908e-15 0)
(3 -1.22375e-15 0)
(3 2.31151e-15 0)
(3 9.77307e-16 0)
(3 1.48974e-15 0)
(3 1.88732e-15 0)
(3 1.30205e-15 0)
(3 7.82994e-17 0)
(3 1.58505e-16 0)
(3 -6.33745e-16 0)
(3 -2.72358e-16 0)
(3 -9.67652e-16 0)
(3 -8.6707e-16 0)
(3 6.50058e-16 0)
(3 -3.78789e-16 0)
(3 -3.06089e-15 0)
(3 -3.84616e-15 0)
(3 -3.77634e-15 0)
(3 -6.47747e-16 0)
(3 -6.35867e-16 0)
(3 2.99019e-16 0)
(3 -7.08067e-16 0)
(3 -1.77848e-15 0)
(3 -2.30575e-15 0)
(3 -6.36952e-16 0)
(3 -1.25603e-16 0)
(3 -5.68425e-16 0)
(3 -2.46466e-15 0)
(3 4.63736e-16 0)
(3 1.91322e-15 0)
(3 9.54832e-16 0)
(3 -2.7189e-16 0)
(3 -3.12002e-15 0)
(3 -2.3932e-15 0)
(3 -1.78555e-15 0)
(3 -8.38664e-16 0)
(3 -1.70812e-17 0)
(3 -1.74251e-15 0)
(3 -8.89164e-16 0)
(3 7.80497e-16 0)
(3 -1.97606e-15 0)
(3 -3.47183e-16 0)
(3 -1.61746e-15 0)
(3 1.36085e-15 0)
(3 1.50397e-15 0)
(3 -2.85169e-15 0)
(3 -3.74294e-15 0)
(3 -1.06838e-15 0)
(3 3.61036e-17 0)
(3 2.91349e-16 0)
(3 -3.63269e-16 0)
(3 -4.42505e-17 0)
(3 5.53199e-16 0)
(3 1.03899e-15 0)
(3 8.90534e-16 0)
(3 2.53231e-15 0)
(3 1.23395e-15 0)
(3 -2.87969e-16 0)
(3 -2.08161e-16 0)
(3 7.67091e-16 0)
(3 7.52083e-16 0)
(3 3.00347e-16 0)
(3 -5.53039e-16 0)
(3 1.16435e-15 0)
(3 3.10989e-16 0)
(3 5.45412e-16 0)
(3 1.20855e-16 0)
(3 2.45645e-16 0)
(3 7.7755e-17 0)
(3 -8.537e-16 0)
(3 2.7613e-15 0)
(3 1.48543e-15 0)
(3 -2.05764e-16 0)
(3 1.00276e-15 0)
(3 2.92224e-15 0)
(3 3.58425e-15 0)
(3 3.26273e-15 0)
(3 1.24261e-15 0)
(3 1.97112e-15 0)
(3 5.19162e-15 0)
(3 5.08662e-15 0)
(3 3.94538e-16 0)
(3 -1.56305e-15 0)
(3 -2.59025e-15 0)
(3 -2.27258e-15 0)
(3 -2.10771e-15 0)
(3 -2.4323e-15 0)
(3 -1.18748e-15 0)
(3 -1.27295e-15 0)
(3 4.03905e-17 0)
(3 -1.15151e-15 0)
(3 -2.5115e-15 0)
(3 -6.40683e-15 0)
(3 -4.38562e-15 0)
(3 -2.34606e-15 0)
(3 -7.18226e-16 0)
(3 -7.6501e-16 0)
(3 1.0882e-15 0)
(3 -1.09647e-15 0)
(3 6.0507e-16 0)
(3 -4.51301e-16 0)
(3 -3.92299e-16 0)
(3 2.80691e-15 0)
(3 4.10038e-15 0)
(3 4.34193e-15 0)
(3 2.54169e-15 0)
(3 2.16788e-15 0)
(3 1.59707e-15 0)
(3 1.56442e-15 0)
(3 3.91257e-16 0)
(3 6.03709e-16 0)
(3 2.38592e-15 0)
(3 3.11958e-15 0)
(3 2.20218e-15 0)
(3 9.79392e-16 0)
(3 5.33681e-16 0)
(3 1.52081e-17 0)
(3 2.33088e-16 0)
(3 2.55236e-15 0)
(3 5.82996e-15 0)
(3 6.0434e-15 0)
(3 3.60194e-15 0)
(3 2.83233e-15 0)
(3 3.45621e-15 0)
(3 1.53029e-15 0)
(3 4.09136e-17 0)
(3 7.66417e-16 0)
(3 3.728e-15 0)
(3 4.23638e-15 0)
(3 6.84915e-15 0)
(3 3.82951e-15 0)
(3 3.31385e-15 0)
(3 2.71125e-15 0)
(3 2.20309e-15 0)
(3 3.57714e-15 0)
(3 7.76559e-16 0)
(3 1.9706e-16 0)
(3 5.29443e-16 0)
(3 6.22781e-16 0)
(3 -2.12735e-16 0)
(3 -2.66801e-16 0)
(3 -7.15864e-16 0)
(3 -6.63907e-16 0)
(3 -2.99562e-16 0)
(3 7.27365e-16 0)
(3 9.31168e-16 0)
(3 3.99024e-16 0)
(3 7.84196e-16 0)
(3 -1.9613e-16 0)
(3 -2.43543e-15 0)
(3 -2.05425e-15 0)
(3 -4.50899e-15 0)
(3 -3.86665e-15 0)
(3 -3.32882e-15 0)
(3 -3.67133e-15 0)
(3 -4.08779e-15 0)
(3 -3.23188e-15 0)
(3 -1.34401e-15 0)
(3 -2.2981e-15 0)
(3 -3.25538e-15 0)
(3 -1.55314e-15 0)
(3 -1.26836e-15 0)
(3 -1.36465e-15 0)
(3 -1.63641e-15 0)
(3 -1.75574e-15 0)
(3 -4.02233e-17 0)
(3 -6.34108e-16 0)
(3 -1.3148e-15 0)
(3 -6.09211e-16 0)
(3 -3.63624e-15 0)
(3 -4.67762e-15 0)
(3 -4.09954e-15 0)
(3 -3.14154e-15 0)
(3 -4.04748e-16 0)
(3 -4.5747e-15 0)
(3 -6.40464e-15 0)
(3 -4.29799e-15 0)
(3 -1.18182e-15 0)
(3 -2.42994e-16 0)
(3 7.92489e-16 0)
(3 7.74834e-16 0)
(3 1.12335e-15 0)
(3 1.60622e-15 0)
(3 1.37473e-15 0)
(3 2.56722e-15 0)
(3 5.67121e-16 0)
(3 8.65589e-16 0)
(3 8.90562e-16 0)
(3 1.68111e-15 0)
(3 9.44559e-16 0)
(3 8.36079e-16 0)
(3 1.95089e-16 0)
(3 -7.95121e-16 0)
(3 -2.18948e-15 0)
(3 -1.47832e-15 0)
(3 -3.34334e-15 0)
(3 -5.94913e-16 0)
(3 6.08743e-16 0)
(3 -6.95141e-16 0)
(3 -2.91033e-15 0)
(3 -4.76747e-15 0)
(3 -2.68939e-15 0)
(3 -2.62605e-15 0)
(3 -1.30778e-15 0)
(3 -1.81364e-15 0)
(3 -2.87702e-15 0)
(3 -3.23781e-15 0)
(3 -2.15585e-15 0)
(3 -1.17472e-15 0)
(3 -3.81536e-16 0)
(3 9.91093e-17 0)
(3 1.72724e-15 0)
(3 4.5413e-16 0)
(3 6.6607e-17 0)
(3 -1.5777e-15 0)
(3 -3.79408e-15 0)
(3 -3.85145e-15 0)
(3 -1.76107e-15 0)
(3 7.72576e-17 0)
(3 7.8553e-16 0)
(3 -8.07447e-16 0)
(3 -7.76836e-16 0)
(3 -1.22456e-15 0)
(3 -2.94532e-15 0)
(3 -5.51072e-15 0)
(3 -5.82457e-15 0)
(3 -3.54614e-15 0)
(3 -4.3055e-15 0)
(3 -3.14344e-15 0)
(3 -7.23897e-16 0)
(3 -1.15701e-15 0)
(3 -7.50777e-16 0)
(3 -5.2394e-16 0)
(3 -2.86486e-16 0)
(3 1.13896e-15 0)
(3 2.14885e-15 0)
(3 2.54361e-15 0)
(3 3.72773e-15 0)
(3 2.71825e-15 0)
(3 -1.94128e-15 0)
(3 -5.43326e-15 0)
(3 -5.59615e-15 0)
(3 -3.90206e-15 0)
(3 -2.96182e-15 0)
(3 -1.28069e-15 0)
(3 1.48647e-16 0)
(3 1.88147e-16 0)
(3 4.87292e-17 0)
(3 -1.35179e-15 0)
(3 -6.52446e-16 0)
(3 1.58279e-16 0)
(3 1.10291e-15 0)
(3 1.02087e-15 0)
(3 6.67834e-16 0)
(3 -1.08884e-15 0)
(3 -2.21021e-16 0)
(3 -4.876e-16 0)
(3 -2.63765e-16 0)
(3 1.09627e-15 0)
(3 2.41226e-15 0)
(3 2.67056e-15 0)
(3 -1.26591e-15 0)
(3 -4.40604e-15 0)
(3 -4.97778e-15 0)
(3 -3.47264e-15 0)
(3 -9.86878e-16 0)
(3 9.54939e-16 0)
(3 1.37569e-15 0)
(3 3.34201e-15 0)
(3 2.61056e-15 0)
(3 8.14702e-16 0)
(3 5.26792e-16 0)
(3 1.18864e-15 0)
(3 -1.11189e-15 0)
(3 -1.35094e-15 0)
(3 -3.56599e-16 0)
(3 -6.8256e-16 0)
(3 -7.29122e-16 0)
(3 -1.71227e-15 0)
(3 3.10062e-17 0)
(3 -8.10708e-16 0)
(3 8.5778e-16 0)
(3 5.55604e-16 0)
(3 2.17184e-15 0)
(3 3.21872e-15 0)
(3 1.33415e-15 0)
(3 -4.98011e-17 0)
(3 1.468e-15 0)
(3 2.48558e-15 0)
(3 1.18274e-15 0)
(3 2.6511e-16 0)
(3 7.82952e-17 0)
(3 -8.97477e-16 0)
(3 -1.74603e-15 0)
(3 4.19818e-18 0)
(3 3.79645e-15 0)
(3 3.17193e-15 0)
(3 2.49636e-15 0)
(3 3.35627e-15 0)
(3 2.3388e-15 0)
(3 2.59429e-15 0)
(3 2.68861e-15 0)
(3 1.63942e-15 0)
(3 8.03373e-16 0)
(3 -6.38958e-16 0)
(3 -6.18138e-16 0)
(3 -3.05215e-15 0)
(3 -4.1673e-15 0)
(3 -2.52828e-15 0)
(3 -7.14213e-16 0)
(3 4.48695e-15 0)
(3 2.6847e-15 0)
(3 4.31821e-16 0)
(3 1.91623e-15 0)
(3 2.97841e-15 0)
(3 2.64319e-15 0)
(3 3.95877e-15 0)
(3 -5.45686e-17 0)
(3 1.94169e-15 0)
(3 1.95856e-15 0)
(3 2.86112e-15 0)
(3 1.99244e-15 0)
(3 -1.61607e-16 0)
(3 4.82665e-16 0)
(3 -4.76711e-16 0)
(3 -1.50259e-15 0)
(3 -4.39193e-15 0)
(3 1.08994e-15 0)
(3 3.54893e-16 0)
(3 -4.55402e-16 0)
(3 -1.16273e-15 0)
(3 -2.75556e-15 0)
(3 -3.41501e-15 0)
(3 -7.06238e-16 0)
(3 -1.20853e-15 0)
(3 3.12848e-15 0)
(3 3.07507e-15 0)
(3 6.06608e-15 0)
(3 5.12068e-15 0)
(3 5.03079e-15 0)
(3 3.33241e-15 0)
(3 1.48474e-15 0)
(3 1.25602e-15 0)
(3 2.78016e-15 0)
(3 3.85145e-15 0)
(3 3.82633e-15 0)
(3 3.45209e-15 0)
(3 2.43931e-15 0)
(3 1.97742e-15 0)
(3 1.65647e-15 0)
(3 4.10826e-15 0)
(3 4.96428e-15 0)
(3 4.58809e-15 0)
(3 3.75903e-15 0)
(3 2.89455e-15 0)
(3 1.48805e-15 0)
(3 1.6026e-15 0)
(3 1.87778e-15 0)
(3 2.30604e-15 0)
(3 4.6496e-15 0)
(3 3.64825e-15 0)
(3 4.24836e-15 0)
(3 3.49998e-15 0)
(3 2.24916e-15 0)
(3 3.62111e-17 0)
(3 5.91391e-16 0)
(3 2.73992e-15 0)
(3 4.73382e-15 0)
(3 1.6601e-15 0)
(3 2.23072e-15 0)
(3 5.98239e-16 0)
(3 -1.89404e-15 0)
(3 -1.7063e-15 0)
(3 -1.05881e-15 0)
(3 5.18098e-16 0)
(3 4.20671e-16 0)
(3 -2.55848e-16 0)
(3 -1.73982e-15 0)
(3 -8.26207e-16 0)
(3 -2.38161e-18 0)
(3 4.42208e-16 0)
(3 4.66301e-16 0)
(3 2.64708e-16 0)
(3 6.96324e-16 0)
(3 8.74344e-16 0)
(3 1.70575e-15 0)
(3 1.51134e-15 0)
(3 1.36423e-15 0)
(3 -5.38149e-17 0)
(3 4.18134e-16 0)
(3 -4.86669e-15 0)
(3 -5.33558e-15 0)
(3 -2.69979e-15 0)
(3 -5.93978e-17 0)
(3 1.58183e-15 0)
(3 9.58855e-16 0)
(3 1.34199e-15 0)
(3 3.1044e-15 0)
(3 3.97636e-15 0)
(3 3.63801e-15 0)
(3 3.51975e-15 0)
(3 1.46711e-15 0)
(3 6.04108e-16 0)
(3 9.11173e-16 0)
(3 8.92271e-16 0)
(3 2.14443e-16 0)
(3 -4.17789e-15 0)