/*--------------------------------*- C++ -*----------------------------------*\
| =========                 |                                                 |
| \\      /  F ield         | OpenFOAM: The Open Source CFD Toolbox           |
|  \\    /   O peration     | Version:  v1912                                 |
|   \\  /    A nd           | Website:  www.openfoam.com                      |
|    \\/     M anipulation  |                                                 |
\*---------------------------------------------------------------------------*/
FoamFile
{
    version     2.0;
    format      ascii;
    class       volScalarField;
    location    "5000";
    object      kl;
}
// * * * * * * * * * * * * * * * * * * * * * * * * * * * * * * * * * * * * * //

dimensions      [0 2 -2 0 0 0 0];


internalField   nonuniform List<scalar> 
33256
(
1e-15
1e-15
1e-15
1e-15
1e-15
1e-15
1e-15
1e-15
1e-15
1e-15
1e-15
1.00052e-15
1.00334e-15
1.0134e-15
1.04541e-15
1.13966e-15
1.51444e-15
4.52572e-14
2.2242e-11
8.52078e-11
2.01641e-10
4.25453e-10
6.70342e-10
1.12582e-09
1.57576e-09
2.40824e-09
3.23346e-09
4.84396e-09
6.46592e-09
1.12054e-08
1.4013e-08
2.77302e-08
5.51413e-08
2.32223e-07
6.74371e-07
1e-15
1e-15
1e-15
1e-15
1e-15
1e-15
1e-15
1e-15
1e-15
1e-15
1e-15
1.00061e-15
1.00371e-15
1.01479e-15
1.05037e-15
1.15603e-15
1.57571e-15
4.66953e-14
2.55222e-11
9.48235e-11
2.20035e-10
4.56505e-10
7.16309e-10
1.19491e-09
1.67189e-09
2.54956e-09
3.42307e-09
5.16369e-09
6.83503e-09
1.24316e-08
1.43183e-08
3.31582e-08
7.84e-08
2.45866e-07
6.73732e-07
1e-15
1e-15
1e-15
1e-15
1e-15
1e-15
1e-15
1e-15
1e-15
1e-15
1e-15
1.00058e-15
1.00367e-15
1.01491e-15
1.05153e-15
1.16042e-15
1.60164e-15
4.71191e-14
2.60078e-11
9.66451e-11
2.234e-10
4.61329e-10
7.18665e-10
1.19219e-09
1.65419e-09
2.50863e-09
3.32701e-09
5.01979e-09
6.47501e-09
1.21226e-08
1.29111e-08
3.14504e-08
7.84489e-08
2.29504e-07
5.2916e-07
1e-15
1e-15
1e-15
1e-15
1e-15
1e-15
1e-15
1e-15
1e-15
1e-15
1e-15
1.00049e-15
1.00337e-15
1.0142e-15
1.05012e-15
1.15694e-15
1.60404e-15
4.61087e-14
2.50487e-11
9.39427e-11
2.17763e-10
4.50344e-10
6.98033e-10
1.15469e-09
1.59188e-09
2.40703e-09
3.1672e-09
4.78493e-09
6.10221e-09
1.13204e-08
1.22964e-08
2.7844e-08
5.0755e-08
1.44847e-07
3.32635e-07
1e-15
1e-15
1e-15
1e-15
1e-15
1e-15
1e-15
1e-15
1e-15
1e-15
1e-15
1.00038e-15
1.00294e-15
1.01298e-15
1.0471e-15
1.14866e-15
1.59197e-15
4.39361e-14
2.34202e-11
8.89625e-11
2.07509e-10
4.31013e-10
6.67616e-10
1.10486e-09
1.52174e-09
2.30416e-09
3.0346e-09
4.59731e-09
5.9069e-09
1.05064e-08
1.2397e-08
2.71517e-08
3.3388e-08
7.91408e-08
1.6051e-07
1e-15
1e-15
1e-15
1e-15
1e-15
1e-15
1e-15
1e-15
1e-15
1e-15
1e-15
1.0003e-15
1.00251e-15
1.01155e-15
1.04324e-15
1.13782e-15
1.57222e-15
4.10463e-14
2.15412e-11
8.3116e-11
1.95609e-10
4.08653e-10
6.3588e-10
1.05651e-09
1.46281e-09
2.22776e-09
2.96008e-09
4.50162e-09
5.89542e-09
9.9809e-09
1.27232e-08
2.48013e-08
3.10152e-08
5.72768e-08
8.04865e-08
1e-15
1e-15
1e-15
1e-15
1e-15
1e-15
1e-15
1e-15
1e-15
1e-15
1.00001e-15
1.00032e-15
1.00219e-15
1.01012e-15
1.03909e-15
1.12601e-15
1.54975e-15
3.78264e-14
1.96217e-11
7.72019e-11
1.83859e-10
3.86702e-10
6.07697e-10
1.01715e-09
1.42336e-09
2.18804e-09
2.94766e-09
4.50416e-09
6.02176e-09
9.80865e-09
1.30922e-08
2.29108e-08
2.9871e-08
4.72347e-08
6.03992e-08
1e-15
1e-15
1e-15
1e-15
1e-15
1e-15
1e-15
1e-15
1e-15
1.00005e-15
1.0002e-15
1.00053e-15
1.00206e-15
1.00888e-15
1.03506e-15
1.11431e-15
1.52801e-15
3.45445e-14
1.77615e-11
7.16328e-11
1.73226e-10
3.67182e-10
5.85536e-10
9.9026e-10
1.40564e-09
2.18607e-09
2.98946e-09
4.59024e-09
6.23951e-09
9.90562e-09
1.34382e-08
2.18202e-08
2.85183e-08
4.09691e-08
5.19873e-08
1e-15
1e-15
1e-15
1e-15
1e-15
1e-15
1e-15
1e-15
1.00002e-15
1.00028e-15
1.00062e-15
1.00098e-15
1.00223e-15
1.00799e-15
1.03147e-15
1.10344e-15
1.5093e-15
3.13625e-14
1.60056e-11
6.66034e-11
1.64171e-10
3.51145e-10
5.70385e-10
9.76866e-10
1.40884e-09
2.21771e-09
3.07496e-09
4.74405e-09
6.50558e-09
1.01362e-08
1.37197e-08
2.08145e-08
2.78346e-08
3.63921e-08
4.52144e-08
1e-15
1e-15
1e-15
1e-15
1e-15
1e-15
1e-15
1e-15
1.00019e-15
1.00074e-15
1.00131e-15
1.00176e-15
1.00278e-15
1.00755e-15
1.02851e-15
1.09386e-15
1.4951e-15
2.83679e-14
1.43735e-11
6.2195e-11
1.56864e-10
3.39025e-10
5.62363e-10
9.76657e-10
1.43054e-09
2.27841e-09
3.19208e-09
4.93875e-09
6.78348e-09
1.03332e-08
1.401e-08
1.99009e-08
2.6931e-08
3.28499e-08
3.94336e-08
1e-15
1e-15
1e-15
1e-15
1e-15
1e-15
1e-15
1.00009e-15
1.00052e-15
1.00144e-15
1.00229e-15
1.00299e-15
1.00379e-15
1.00768e-15
1.02636e-15
1.08585e-15
1.48633e-15
2.56035e-14
1.28731e-11
5.84325e-11
1.51326e-10
3.30897e-10
5.61102e-10
9.88301e-10
1.46793e-09
2.36127e-09
3.32926e-09
5.13996e-09
7.05254e-09
1.03968e-08
1.44177e-08
1.91691e-08
2.53894e-08
2.99137e-08
3.43103e-08
1e-15
1e-15
1e-15
1e-15
1e-15
1e-15
1e-15
1.0003e-15
1.00103e-15
1.00243e-15
1.00362e-15
1.00476e-15
1.00536e-15
1.00847e-15
1.02514e-15
1.0796e-15
1.48354e-15
2.30875e-14
1.15071e-11
5.53145e-11
1.475e-10
3.26634e-10
5.6591e-10
1.01055e-09
1.51766e-09
2.4574e-09
3.47712e-09
5.28869e-09
7.42052e-09
1.04537e-08
1.4417e-08
1.85765e-08
2.35809e-08
2.72351e-08
2.99111e-08
1e-15
1e-15
1e-15
1e-15
1e-15
1e-15
1.0001e-15
1.00065e-15
1.00177e-15
1.00374e-15
1.00535e-15
1.00711e-15
1.00759e-15
1.01004e-15
1.02495e-15
1.07521e-15
1.487e-15
2.08255e-14
1.02757e-11
5.28272e-11
1.45295e-10
3.25976e-10
5.76078e-10
1.04153e-09
1.57628e-09
2.55343e-09
3.64791e-09
5.43902e-09
7.66432e-09
1.05467e-08
1.41502e-08
1.79041e-08
2.17599e-08
2.46877e-08
2.62033e-08
1e-15
1e-15
1e-15
1e-15
1e-15
1e-15
1.0003e-15
1.00117e-15
1.0028e-15
1.0054e-15
1.00757e-15
1.01011e-15
1.01057e-15
1.01251e-15
1.02592e-15
1.07276e-15
1.49686e-15
1.88172e-14
9.17781e-12
5.09503e-11
1.44601e-10
3.28522e-10
5.90636e-10
1.07919e-09
1.64028e-09
2.65346e-09
3.80333e-09
5.60963e-09
7.77652e-09
1.05788e-08
1.37154e-08
1.70537e-08
1.99915e-08
2.22645e-08
2.30625e-08
1e-15
1e-15
1e-15
1e-15
1e-15
1.00004e-15
1.00061e-15
1.00188e-15
1.00416e-15
1.00743e-15
1.01035e-15
1.01379e-15
1.01443e-15
1.016e-15
1.02814e-15
1.07233e-15
1.51308e-15
1.70591e-14
8.21165e-12
4.96589e-11
1.45286e-10
3.33679e-10
6.08641e-10
1.12076e-09
1.70606e-09
2.75524e-09
3.93068e-09
5.75805e-09
7.81159e-09
1.0485e-08
1.31963e-08
1.60693e-08
1.82986e-08
2.00055e-08
2.03769e-08
1e-15
1e-15
1e-15
1e-15
1e-15
1.00018e-15
1.00106e-15
1.0028e-15
1.0059e-15
1.00989e-15
1.01382e-15
1.01819e-15
1.01937e-15
1.02061e-15
1.03167e-15
1.07394e-15
1.53546e-15
1.55459e-14
7.37491e-12
4.89234e-11
1.47212e-10
3.39886e-10
6.29844e-10
1.16045e-09
1.77251e-09
2.842e-09
4.05382e-09
5.83726e-09
7.80031e-09
1.02473e-08
1.26039e-08
1.49903e-08
1.66874e-08
1.79278e-08
1.80558e-08
1e-15
1e-15
1e-15
1e-15
1e-15
1.00041e-15
1.00169e-15
1.00398e-15
1.00808e-15
1.0128e-15
1.01807e-15
1.02339e-15
1.02559e-15
1.02645e-15
1.03659e-15
1.07765e-15
1.56359e-15
1.42711e-14
6.66475e-12
4.87068e-11
1.50208e-10
3.43862e-10
6.62897e-10
1.17715e-09
1.87613e-09
2.88551e-09
4.17581e-09
5.82438e-09
7.74937e-09
9.86583e-09
1.19759e-08
1.38202e-08
1.52136e-08
1.59645e-08
1.61182e-08
1e-15
1e-15
1e-15
1e-15
1.00002e-15
1.00072e-15
1.00253e-15
1.00544e-15
1.01075e-15
1.01622e-15
1.02324e-15
1.0295e-15
1.03314e-15
1.03369e-15
1.04305e-15
1.08357e-15
1.5968e-15
1.32259e-14
6.07747e-12
4.89567e-11
1.54069e-10
3.50306e-10
7.13823e-10
1.17574e-09
1.98593e-09
2.89791e-09
4.27063e-09
5.74433e-09
7.62576e-09
9.39464e-09
1.12811e-08
1.26513e-08
1.38034e-08
1.42089e-08
1.4377e-08
1e-15
1e-15
1e-15
1e-15
1.00015e-15
1.00116e-15
1.0036e-15
1.00721e-15
1.01395e-15
1.02024e-15
1.02942e-15
1.03666e-15
1.04213e-15
1.04245e-15
1.05118e-15
1.09183e-15
1.63407e-15
1.23968e-14
5.60724e-12
4.96018e-11
1.58521e-10
3.61175e-10
7.47237e-10
1.20928e-09
2.06599e-09
2.89405e-09
4.30809e-09
5.61639e-09
7.40301e-09
8.8687e-09
1.05141e-08
1.15175e-08
1.2452e-08
1.26392e-08
1.28076e-08
1e-15
1e-15
1e-15
1e-15
1.00034e-15
1.00174e-15
1.00493e-15
1.00935e-15
1.01774e-15
1.02496e-15
1.03674e-15
1.04504e-15
1.0527e-15
1.0529e-15
1.06113e-15
1.10257e-15
1.67389e-15
1.17595e-14
5.24287e-12
5.05215e-11
1.6314e-10
3.7193e-10
7.72428e-10
1.23778e-09
2.11175e-09
2.89728e-09
4.27536e-09
5.4587e-09
7.08454e-09
8.31177e-09
9.69087e-09
1.04372e-08
1.11605e-08
1.1239e-08
1.14015e-08
1e-15
1e-15
1e-15
1e-15
1.00058e-15
1.00245e-15
1.00653e-15
1.01189e-15
1.02217e-15
1.03056e-15
1.04529e-15
1.05482e-15
1.06504e-15
1.0652e-15
1.07305e-15
1.11597e-15
1.71414e-15
1.12632e-14
4.96003e-12
5.15053e-11
1.67273e-10
3.80698e-10
7.91192e-10
1.2544e-09
2.11665e-09
2.88449e-09
4.1732e-09
5.26702e-09
6.68306e-09
7.72899e-09
8.83355e-09
9.41062e-09
9.93412e-09
9.98016e-09
1.0096e-08
1e-15
1e-15
1e-15
1e-15
1.00088e-15
1.0033e-15
1.00844e-15
1.01488e-15
1.02729e-15
1.03724e-15
1.05519e-15
1.06616e-15
1.07938e-15
1.07959e-15
1.08715e-15
1.13223e-15
1.75198e-15
1.07994e-14
4.70319e-12
5.21668e-11
1.69847e-10
3.85344e-10
8.0001e-10
1.25462e-09
2.07843e-09
2.85095e-09
4.0063e-09
5.02099e-09
6.2163e-09
7.1084e-09
7.96599e-09
8.41783e-09
8.78233e-09
8.81753e-09
8.90312e-09
1e-15
1e-15
1e-15
1e-15
1.00121e-15
1.00429e-15
1.01068e-15
1.01838e-15
1.0332e-15
1.04502e-15
1.06667e-15
1.0793e-15
1.09598e-15
1.09632e-15
1.10365e-15
1.15156e-15
1.78369e-15
1.01477e-14
4.35255e-12
5.17972e-11
1.69084e-10
3.82746e-10
7.89849e-10
1.23523e-09
2.00149e-09
2.77276e-09
3.78173e-09
4.71173e-09
5.69419e-09
6.44853e-09
7.0943e-09
7.45092e-09
7.69131e-09
7.72785e-09
7.798e-09
1e-15
1e-15
1e-15
1e-15
1.00161e-15
1.00544e-15
1.01328e-15
1.02243e-15
1.04001e-15
1.054e-15
1.07993e-15
1.09445e-15
1.11514e-15
1.1157e-15
1.12284e-15
1.17422e-15
1.8048e-15
8.93536e-15
3.68791e-12
4.91984e-11
1.62263e-10
3.68843e-10
7.41201e-10
1.21152e-09
1.88123e-09
2.63417e-09
3.49357e-09
4.33177e-09
5.11601e-09
5.74722e-09
6.21426e-09
6.49868e-09
6.64181e-09
6.68568e-09
6.74168e-09
1e-15
1e-15
1e-15
1.00011e-15
1.00211e-15
1.0068e-15
1.01629e-15
1.0271e-15
1.04785e-15
1.06434e-15
1.09517e-15
1.11187e-15
1.13719e-15
1.13807e-15
1.14502e-15
1.20048e-15
1.8109e-15
6.83053e-15
2.41688e-12
4.25732e-11
1.45389e-10
3.44267e-10
6.58878e-10
1.14081e-09
1.71379e-09
2.42587e-09
3.13847e-09
3.87722e-09
4.48096e-09
5.00227e-09
5.31934e-09
5.54931e-09
5.61381e-09
5.6687e-09
5.71439e-09
1e-15
1e-15
1e-15
1.00008e-15
1.00266e-15
1.00836e-15
1.01976e-15
1.03247e-15
1.05683e-15
1.07618e-15
1.1126e-15
1.13184e-15
1.1625e-15
1.16382e-15
1.17058e-15
1.2306e-15
1.80114e-15
5.28841e-15
1.14781e-12
3.08332e-11
1.15174e-10
2.91497e-10
5.55658e-10
1.00538e-09
1.50116e-09
2.1342e-09
2.72467e-09
3.33975e-09
3.80223e-09
4.20472e-09
4.41861e-09
4.58376e-09
4.60746e-09
4.65798e-09
4.70427e-09
1e-15
1e-15
1e-15
1e-15
1.00328e-15
1.01016e-15
1.02376e-15
1.03863e-15
1.0671e-15
1.08971e-15
1.13241e-15
1.1547e-15
1.19148e-15
1.19339e-15
1.19995e-15
1.26488e-15
1.78159e-15
1.15099e-14
5.25375e-12
1.92291e-11
7.64225e-11
2.07861e-10
4.41649e-10
8.14752e-10
1.25985e-09
1.77205e-09
2.27548e-09
2.737e-09
3.10704e-09
3.37107e-09
3.53476e-09
3.61064e-09
3.63814e-09
3.69177e-09
3.74606e-09
1e-15
1e-15
1e-15
1.00034e-15
1.00424e-15
1.01231e-15
1.02828e-15
1.04563e-15
1.07879e-15
1.10512e-15
1.15472e-15
1.18098e-15
1.2245e-15
1.22731e-15
1.23369e-15
1.30361e-15
1.7361e-15
1.17037e-14
4.67837e-12
2.21627e-11
5.52677e-11
1.48563e-10
3.30019e-10
6.27727e-10
1.00646e-09
1.409e-09
1.81327e-09
2.14792e-09
2.4199e-09
2.58262e-09
2.68705e-09
2.70875e-09
2.7521e-09
2.80763e-09
2.87451e-09
1e-15
1e-15
1e-15
1.00054e-15
1.0052e-15
1.01467e-15
1.03337e-15
1.05354e-15
1.09202e-15
1.1226e-15
1.17955e-15
1.21148e-15
1.26166e-15
1.26677e-15
1.27265e-15
1.34699e-15
1.68705e-15
6.49409e-15
3.5962e-13
4.08474e-11
4.98712e-11
1.10574e-10
2.44777e-10
4.8882e-10
7.74557e-10
1.10816e-09
1.38696e-09
1.64794e-09
1.79828e-09
1.91857e-09
1.93424e-09
1.96812e-09
2.03406e-09
2.08274e-09
2.15998e-09
1e-15
1e-15
1e-15
1.00044e-15
1.00595e-15
1.01711e-15
1.03902e-15
1.06242e-15
1.1069e-15
1.14236e-15
1.20701e-15
1.24714e-15
1.30314e-15
1.31322e-15
1.31781e-15
1.39498e-15
1.67202e-15
6.49887e-15
7.21868e-14
2.39484e-11
3.58136e-11
8.97767e-11
2.0883e-10
3.90983e-10
6.45857e-10
8.66435e-10
1.09977e-09
1.23578e-09
1.35902e-09
1.37434e-09
1.40816e-09
1.45122e-09
1.52864e-09
1.57474e-09
1.64966e-09
1e-15
1e-15
1e-15
1e-15
1.00652e-15
1.01974e-15
1.04525e-15
1.07238e-15
1.12336e-15
1.16483e-15
1.2378e-15
1.28846e-15
1.35002e-15
1.36682e-15
1.36999e-15
1.44743e-15
1.68848e-15
6.23234e-15
1.79399e-14
2.16524e-12
2.48716e-11
8.62908e-11
1.96311e-10
3.77724e-10
5.51866e-10
7.46767e-10
8.74606e-10
9.89154e-10
1.01452e-09
1.03684e-09
1.083e-09
1.13381e-09
1.20568e-09
1.25573e-09
1.3175e-09
1e-15
1e-15
1e-15
1.00011e-15
1.00786e-15
1.02307e-15
1.05184e-15
1.08366e-15
1.14095e-15
1.19243e-15
1.27197e-15
1.33566e-15
1.40313e-15
1.42842e-15
1.43015e-15
1.50426e-15
1.72958e-15
5.55381e-15
2.35364e-14
7.05092e-12
3.94665e-11
1.05218e-10
2.20192e-10
3.55897e-10
5.05481e-10
6.23554e-10
7.21911e-10
7.57881e-10
7.73081e-10
8.04837e-10
8.60912e-10
9.24156e-10
9.8739e-10
1.04387e-09
1.09373e-09
1e-15
1e-15
1e-15
1e-15
1.00841e-15
1.02627e-15
1.05856e-15
1.09803e-15
1.15968e-15
1.22504e-15
1.31047e-15
1.38948e-15
1.46342e-15
1.49919e-15
1.49958e-15
1.56639e-15
1.78683e-15
4.706e-15
2.0443e-14
5.64063e-12
3.38356e-11
9.67083e-11
1.67298e-10
2.82742e-10
3.59434e-10
4.46546e-10
4.65696e-10
4.84875e-10
5.22579e-10
5.851e-10
6.58257e-10
7.32208e-10
8.01727e-10
8.62408e-10
9.1541e-10
1e-15
1e-15
1e-15
1e-15
1.00977e-15
1.03143e-15
1.06498e-15
1.11709e-15
1.17983e-15
1.26238e-15
1.35383e-15
1.4507e-15
1.53199e-15
1.58024e-15
1.57948e-15
1.63585e-15
1.85447e-15
3.904e-15
3.95229e-14
1.6399e-11
1.98418e-11
3.49397e-11
6.21381e-11
1.12657e-10
1.3683e-10
1.60891e-10
2.04612e-10
2.76528e-10
3.64013e-10
4.62322e-10
5.5975e-10
6.53447e-10
7.361e-10
8.0947e-10
8.70735e-10
1e-15
1e-15
1e-15
1.00067e-15
1.01249e-15
1.03852e-15
1.07394e-15
1.13862e-15
1.20228e-15
1.30519e-15
1.40227e-15
1.52048e-15
1.6094e-15
1.67347e-15
1.67219e-15
1.71579e-15
1.92887e-15
3.18524e-15
4.69547e-14
2.06028e-11
7.41521e-11
1.41817e-10
1.91041e-10
2.3907e-10
2.92926e-10
3.62663e-10
4.4888e-10
5.51339e-10
6.62053e-10
7.75257e-10
8.83218e-10
9.82811e-10
1.07055e-09
1.14685e-09
1.21168e-09
1e-15
1e-15
1e-15
1.00081e-15
1.01448e-15
1.04492e-15
1.08508e-15
1.16094e-15
1.2299e-15
1.35339e-15
1.45585e-15
1.59979e-15
1.69623e-15
1.78086e-15
1.78033e-15
1.8102e-15
2.00557e-15
2.64581e-15
9.708e-15
7.65966e-13
5.6253e-11
1.61483e-10
2.71237e-10
3.79703e-10
4.93548e-10
6.18638e-10
7.54277e-10
8.96861e-10
1.0398e-09
1.17747e-09
1.30491e-09
1.41967e-09
1.52041e-09
1.60763e-09
1.68232e-09
1e-15
1e-15
1e-15
1e-15
1.01525e-15
1.05079e-15
1.09693e-15
1.18434e-15
1.26264e-15
1.40645e-15
1.51647e-15
1.68879e-15
1.79457e-15
1.90363e-15
1.9056e-15
1.92362e-15
2.08247e-15
2.47028e-15
6.36432e-15
1.30358e-13
4.51384e-11
1.38486e-10
2.68625e-10
4.12692e-10
5.6815e-10
7.33957e-10
9.06099e-10
1.07906e-09
1.24657e-09
1.40378e-09
1.54716e-09
1.67523e-09
1.78763e-09
1.88528e-09
1.96935e-09
1e-15
1e-15
1e-15
1.00022e-15
1.01978e-15
1.05985e-15
1.11105e-15
1.20959e-15
1.29888e-15
1.46164e-15
1.58874e-15
1.78557e-15
1.90898e-15
2.04171e-15
2.05257e-15
2.06199e-15
2.17003e-15
2.44183e-15
4.04622e-15
7.92004e-14
3.09479e-11
1.12554e-10
2.57552e-10
4.29372e-10
6.16109e-10
8.11579e-10
1.00948e-09
1.20347e-09
1.38769e-09
1.55818e-09
1.71246e-09
1.84986e-09
1.97059e-09
2.07588e-09
2.16695e-09
1e-15
1e-15
1e-15
1e-15
1.01846e-15
1.06234e-15
1.12312e-15
1.23318e-15
1.34101e-15
1.51513e-15
1.67908e-15
1.88503e-15
2.04851e-15
2.18928e-15
2.23443e-15
2.23444e-15
2.28984e-15
2.47172e-15
2.88849e-15
8.0055e-15
7.35003e-13
7.09333e-11
2.14939e-10
4.14829e-10
6.29931e-10
8.51334e-10
1.07138e-09
1.28352e-09
1.48242e-09
1.66486e-09
1.82916e-09
1.97522e-09
2.10371e-09
2.21609e-09
2.31363e-09
1e-15
1e-15
1e-15
1e-15
1.02003e-15
1.06524e-15
1.14422e-15
1.25389e-15
1.39774e-15
1.57236e-15
1.78152e-15
1.9957e-15
2.20643e-15
2.35856e-15
2.44456e-15
2.44222e-15
2.46141e-15
2.56532e-15
2.69249e-15
3.48083e-15
9.65493e-14
3.07438e-11
1.36183e-10
3.29979e-10
5.5941e-10
7.97848e-10
1.03371e-09
1.25909e-09
1.46886e-09
1.6604e-09
1.83262e-09
1.98589e-09
2.1211e-09
2.2398e-09
2.34325e-09
1e-15
1e-15
1e-15
1e-15
1.02383e-15
1.07532e-15
1.1702e-15
1.2835e-15
1.457e-15
1.64512e-15
1.89112e-15
2.12783e-15
2.3799e-15
2.55849e-15
2.68468e-15
2.70277e-15
2.70308e-15
2.72447e-15
2.75873e-15
2.79824e-15
5.75193e-15
5.31186e-13
4.14034e-11
1.51306e-10
3.50843e-10
5.92899e-10
8.35226e-10
1.06635e-09
1.28161e-09
1.47885e-09
1.65716e-09
1.81668e-09
1.95825e-09
2.08322e-09
2.19279e-09
1e-15
1e-15
1e-15
1.00226e-15
1.0325e-15
1.09125e-15
1.19712e-15
1.32885e-15
1.51623e-15
1.73915e-15
2.00407e-15
2.28951e-15
2.56422e-15
2.80046e-15
2.95098e-15
3.02614e-15
3.02986e-15
3.02648e-15
3.02676e-15
3.07404e-15
3.36307e-15
1.34303e-14
4.75017e-13
2.43584e-12
6.86864e-11
2.04285e-10
3.92463e-10
5.94433e-10
7.96143e-10
9.88675e-10
1.16715e-09
1.32956e-09
1.47548e-09
1.60552e-09
1.72046e-09
1e-15
1e-15
1e-15
1e-15
1.03289e-15
1.10035e-15
1.22366e-15
1.36981e-15
1.58694e-15
1.83272e-15
2.13987e-15
2.45654e-15
2.78478e-15
3.05949e-15
3.27407e-15
3.39327e-15
3.45838e-15
3.48705e-15
3.53702e-15
3.74848e-15
4.31074e-15
6.0789e-15
1.65719e-14
6.2024e-14
6.56507e-13
2.49113e-12
2.04243e-11
7.10811e-11
1.619e-10
2.66567e-10
3.73131e-10
4.76155e-10
5.72658e-10
6.61239e-10
7.41276e-10
1e-15
1e-15
1e-15
1.0063e-15
1.0464e-15
1.12237e-15
1.25975e-15
1.42108e-15
1.66825e-15
1.93929e-15
2.29149e-15
2.64487e-15
3.03065e-15
3.35548e-15
3.64209e-15
3.82972e-15
3.98157e-15
4.10103e-15
4.27557e-15
4.78028e-15
5.67119e-15
7.91643e-15
1.16083e-14
2.0211e-14
3.63775e-14
9.17999e-14
2.4825e-13
7.34848e-13
1.69676e-12
3.44159e-12
5.75191e-12
8.43743e-12
1.13388e-11
1.43227e-11
1.72887e-11
1e-15
1e-15
1e-15
1e-15
1.04323e-15
1.1362e-15
1.27607e-15
1.4847e-15
1.73984e-15
2.06631e-15
2.44452e-15
2.86191e-15
3.29301e-15
3.69482e-15
4.05232e-15
4.34213e-15
4.6034e-15
4.87174e-15
5.25538e-15
5.9964e-15
7.2817e-15
9.85757e-15
1.33458e-14
1.96445e-14
2.68134e-14
3.81646e-14
5.16772e-14
7.16561e-14
9.92239e-14
1.38664e-13
1.91206e-13
2.55326e-13
3.28581e-13
4.07911e-13
4.90453e-13
1e-15
1e-15
1e-15
1.01186e-15
1.06442e-15
1.1755e-15
1.31444e-15
1.57433e-15
1.81053e-15
2.22909e-15
2.59303e-15
3.12438e-15
3.56203e-15
4.09606e-15
4.49414e-15
4.95039e-15
5.31138e-15
5.81559e-15
6.42738e-15
7.52011e-15
9.15322e-15
1.19333e-14
1.5825e-14
2.11447e-14
2.75632e-14
3.50143e-14
4.31626e-14
5.18141e-14
6.07615e-14
6.98481e-14
7.89521e-14
8.79488e-14
9.6724e-14
1.05164e-13
1.13141e-13
1e-15
1e-15
1e-15
1e-15
1.05367e-15
1.17803e-15
1.33584e-15
1.62559e-15
1.90301e-15
2.35206e-15
2.79074e-15
3.35893e-15
3.89528e-15
4.49017e-15
5.0242e-15
5.59032e-15
6.15333e-15
6.85801e-15
7.78504e-15
9.1733e-15
1.12149e-14
1.41428e-14
1.80346e-14
2.28565e-14
2.84127e-14
3.44504e-14
4.07022e-14
4.69425e-14
5.29917e-14
5.87356e-14
6.41009e-14
6.90555e-14
7.3584e-14
7.7688e-14
8.13528e-14
1e-15
1e-15
1e-15
1e-15
1.059e-15
1.19418e-15
1.37392e-15
1.67815e-15
2.02229e-15
2.48965e-15
3.01002e-15
3.62177e-15
4.25875e-15
4.93318e-15
5.60546e-15
6.31261e-15
7.08414e-15
8.02454e-15
9.25368e-15
1.09461e-14
1.32537e-14
1.6286e-14
2.00368e-14
2.44032e-14
2.91943e-14
3.42004e-14
3.92197e-14
4.40967e-14
4.87153e-14
5.30096e-14
5.69427e-14
6.05089e-14
6.37131e-14
6.65717e-14
6.90885e-14
1e-15
1e-15
1e-15
1e-15
1.06777e-15
1.21223e-15
1.43035e-15
1.75219e-15
2.14913e-15
2.65702e-15
3.24607e-15
3.924e-15
4.65348e-15
5.43136e-15
6.24117e-15
7.11479e-15
8.09769e-15
9.28698e-15
1.07934e-14
1.27463e-14
1.52335e-14
1.82845e-14
2.18364e-14
2.57642e-14
2.99001e-14
3.40824e-14
3.81699e-14
4.20622e-14
4.56911e-14
4.90234e-14
5.20455e-14
5.47633e-14
5.71887e-14
5.934e-14
6.12258e-14
1e-15
1e-15
1e-15
1.00455e-15
1.08509e-15
1.24835e-15
1.49876e-15
1.85229e-15
2.29622e-15
2.85668e-15
3.51227e-15
4.26756e-15
5.09184e-15
5.98532e-15
6.939e-15
7.99008e-15
9.18563e-15
1.06153e-14
1.23649e-14
1.45196e-14
1.71092e-14
2.01112e-14
2.34336e-14
2.69549e-14
3.05362e-14
3.40604e-14
3.74317e-14
4.05892e-14
4.34957e-14
4.61384e-14
4.85166e-14
5.06423e-14
5.25301e-14
5.4198e-14
5.56567e-14
1e-15
1e-15
1e-15
1.04435e-15
1.14948e-15
1.33979e-15
1.61694e-15
1.99991e-15
2.49087e-15
3.10354e-15
3.82924e-15
4.6635e-15
5.58899e-15
6.60163e-15
7.70599e-15
8.93425e-15
1.0337e-14
1.19827e-14
1.39333e-14
1.62269e-14
1.88538e-14
2.17567e-14
2.48395e-14
2.79919e-14
3.11088e-14
3.4106e-14
3.6923e-14
3.95252e-14
4.18951e-14
4.40322e-14
4.59433e-14
4.76429e-14
4.91466e-14
5.04711e-14
5.16276e-14
1e-15
1e-15
1e-15
1.05595e-15
1.17508e-15
1.39098e-15
1.70017e-15
2.12237e-15
2.6645e-15
3.33805e-15
4.13764e-15
5.05926e-15
6.08989e-15
7.22898e-15
8.48458e-15
9.8881e-15
1.14814e-14
1.33137e-14
1.54164e-14
1.77924e-14
2.04025e-14
2.31755e-14
2.60197e-14
2.88451e-14
3.15734e-14
3.41486e-14
3.65339e-14
3.87123e-14
4.06791e-14
4.24407e-14
4.40079e-14
4.53959e-14
4.66201e-14
4.76957e-14
4.8634e-14
1e-15
1e-15
1.00079e-15
1.05962e-15
1.18001e-15
1.41472e-15
1.75872e-15
2.22337e-15
2.82052e-15
3.55812e-15
4.4358e-15
5.44771e-15
6.58703e-15
7.85289e-15
9.25701e-15
1.08237e-14
1.25848e-14
1.45656e-14
1.67719e-14
1.91786e-14
2.1731e-14
2.43546e-14
2.69704e-14
2.95074e-14
3.19111e-14
3.41452e-14
3.61906e-14
3.80415e-14
3.9701e-14
4.11793e-14
4.24889e-14
4.36451e-14
4.46623e-14
4.55544e-14
4.63321e-14
1e-15
1e-15
1.00692e-15
1.06968e-15
1.20505e-15
1.4642e-15
1.83977e-15
2.34863e-15
2.99872e-15
3.8028e-15
4.75719e-15
5.8613e-15
7.10659e-15
8.49667e-15
1.00382e-14
1.17507e-14
1.36483e-14
1.57377e-14
1.79999e-14
2.03942e-14
2.28579e-14
2.53231e-14
2.77234e-14
3.00075e-14
3.21379e-14
3.40946e-14
3.58689e-14
3.74629e-14
3.88842e-14
4.01448e-14
4.1258e-14
4.22383e-14
4.30991e-14
4.3853e-14
4.451e-14
1e-15
1e-15
1.00974e-15
1.07842e-15
1.22932e-15
1.51414e-15
1.92323e-15
2.47782e-15
3.18283e-15
4.05449e-15
5.08664e-15
6.2822e-15
7.63096e-15
9.1379e-15
1.08032e-14
1.26381e-14
1.46396e-14
1.6797e-14
1.90736e-14
2.14207e-14
2.37752e-14
2.60792e-14
2.82799e-14
3.03421e-14
3.22416e-14
3.39695e-14
3.55249e-14
3.69142e-14
3.81476e-14
3.92381e-14
4.01986e-14
4.10429e-14
4.17832e-14
4.2431e-14
4.29954e-14
1e-15
1e-15
1e-15
1.04923e-15
1.21212e-15
1.51828e-15
1.97221e-15
2.57493e-15
3.342e-15
4.28141e-15
5.39493e-15
6.67857e-15
8.12809e-15
9.73995e-15
1.15132e-14
1.34428e-14
1.55155e-14
1.7702e-14
1.99588e-14
2.22314e-14
2.44647e-14
2.66088e-14
2.86266e-14
3.04931e-14
3.21963e-14
3.37335e-14
3.51093e-14
3.63328e-14
3.74155e-14
3.83702e-14
3.92097e-14
3.99465e-14
4.0592e-14
4.11564e-14
4.16482e-14
1e-15
1e-15
1.0274e-15
1.10901e-15
1.31144e-15
1.65041e-15
2.13817e-15
2.78233e-15
3.60484e-15
4.60618e-15
5.79385e-15
7.15713e-15
8.69497e-15
1.03947e-14
1.22515e-14
1.42454e-14
1.63537e-14
1.85338e-14
2.07403e-14
2.29181e-14
2.50217e-14
2.70104e-14
2.88594e-14
3.05524e-14
3.20855e-14
3.34612e-14
3.4687e-14
3.57734e-14
3.67325e-14
3.75766e-14
3.83179e-14
3.89678e-14
3.95367e-14
4.00341e-14
4.04675e-14
1e-15
1e-15
1.03823e-15
1.13215e-15
1.35737e-15
1.72898e-15
2.25036e-15
2.9466e-15
3.82083e-15
4.89017e-15
6.14471e-15
7.58671e-15
9.19831e-15
1.09735e-14
1.28876e-14
1.49206e-14
1.70311e-14
1.91789e-14
2.13106e-14
2.33828e-14
2.53526e-14
2.71944e-14
2.88873e-14
3.04269e-14
3.18127e-14
3.30503e-14
3.41492e-14
3.51208e-14
3.59769e-14
3.67294e-14
3.73896e-14
3.7968e-14
3.84741e-14
3.89164e-14
3.93021e-14
1e-15
1e-15
1e-15
1.08149e-15
1.29991e-15
1.69611e-15
2.26262e-15
3.00721e-15
3.94024e-15
5.07016e-15
6.39224e-15
7.89938e-15
9.57562e-15
1.14028e-14
1.33535e-14
1.53943e-14
1.74821e-14
1.95707e-14
2.16131e-14
2.35691e-14
2.54073e-14
2.71074e-14
2.86601e-14
3.00624e-14
3.13182e-14
3.2436e-14
3.34259e-14
3.42995e-14
3.50681e-14
3.57432e-14
3.63349e-14
3.68532e-14
3.73066e-14
3.77028e-14
3.80484e-14
1e-15
1e-15
1e-15
1.09409e-15
1.33314e-15
1.75968e-15
2.36448e-15
3.1509e-15
4.13504e-15
5.3166e-15
6.69393e-15
8.2512e-15
9.97189e-15
1.18274e-14
1.37867e-14
1.58073e-14
1.78457e-14
1.98545e-14
2.17933e-14
2.36275e-14
2.53347e-14
2.69009e-14
2.83216e-14
2.95985e-14
3.07382e-14
3.17499e-14
3.26441e-14
3.34322e-14
3.41249e-14
3.47328e-14
3.52655e-14
3.5732e-14
3.614e-14
3.64965e-14
3.68075e-14
1e-15
1e-15
1e-15
1.22174e-15
1.49657e-15
1.96083e-15
2.59652e-15
3.42076e-15
4.44597e-15
5.6709e-15
7.0889e-15
8.68133e-15
1.04249e-14
1.22863e-14
1.42277e-14
1.62042e-14
1.81712e-14
2.00851e-14
2.19106e-14
2.36204e-14
2.51985e-14
2.66375e-14
2.79363e-14
2.90992e-14
3.01342e-14
3.10511e-14
3.18604e-14
3.25729e-14
3.31987e-14
3.37477e-14
3.42287e-14
3.46497e-14
3.5018e-14
3.53398e-14
3.56207e-14
1e-15
1e-15
1e-15
1.20197e-15
1.53634e-15
2.01793e-15
2.68982e-15
3.55416e-15
4.61929e-15
5.88283e-15
7.33273e-15
8.94733e-15
1.0697e-14
1.25446e-14
1.44478e-14
1.63615e-14
1.82421e-14
2.00512e-14
2.176e-14
2.33484e-14
2.48043e-14
2.6124e-14
2.73103e-14
2.83694e-14
2.931e-14
3.01419e-14
3.08754e-14
3.15206e-14
3.20872e-14
3.2584e-14
3.30192e-14
3.34001e-14
3.37333e-14
3.40245e-14
3.42788e-14
1e-15
1e-15
1e-15
1.23186e-15
1.58172e-15
2.08937e-15
2.79078e-15
3.68647e-15
4.78122e-15
6.07006e-15
7.53602e-15
9.15364e-15
1.08882e-14
1.26997e-14
1.45436e-14
1.6376e-14
1.81565e-14
1.9854e-14
2.14428e-14
2.29089e-14
2.42454e-14
2.54522e-14
2.65335e-14
2.74967e-14
2.83506e-14
2.91049e-14
2.97695e-14
3.03539e-14
3.08668e-14
3.13165e-14
3.17103e-14
3.20551e-14
3.23567e-14
3.26203e-14
3.28506e-14
1e-15
1e-15
1e-15
1.25799e-15
1.61994e-15
2.15234e-15
2.87728e-15
3.7969e-15
4.91159e-15
6.2131e-15
7.67974e-15
9.28239e-15
1.09824e-14
1.27382e-14
1.45049e-14
1.62426e-14
1.79153e-14
1.9495e-14
2.09635e-14
2.23107e-14
2.35335e-14
2.46337e-14
2.56171e-14
2.64914e-14
2.72655e-14
2.79488e-14
2.85505e-14
2.90792e-14
2.95433e-14
2.99501e-14
3.03064e-14
3.06183e-14
3.08912e-14
3.11298e-14
3.13381e-14
1e-15
1e-15
1e-15
1.16601e-15
1.50795e-15
2.07243e-15
2.81969e-15
3.75901e-15
4.8866e-15
6.19006e-15
7.64414e-15
9.21632e-15
1.08663e-14
1.2552e-14
1.42307e-14
1.58648e-14
1.74231e-14
1.88842e-14
2.02342e-14
2.14668e-14
2.25813e-14
2.35814e-14
2.44735e-14
2.52655e-14
2.5966e-14
2.6584e-14
2.71278e-14
2.76057e-14
2.8025e-14
2.83926e-14
2.87146e-14
2.89965e-14
2.92431e-14
2.94587e-14
2.96471e-14
1e-15
1e-15
1e-15
1.1789e-15
1.53855e-15
2.11662e-15
2.87562e-15
3.82109e-15
4.9462e-15
6.2343e-15
7.6574e-15
9.18008e-15
1.07616e-14
1.23602e-14
1.39368e-14
1.54579e-14
1.6898e-14
1.82396e-14
1.94729e-14
2.05945e-14
2.16056e-14
2.25109e-14
2.33171e-14
2.40321e-14
2.46641e-14
2.52212e-14
2.57114e-14
2.61421e-14
2.652e-14
2.68513e-14
2.71415e-14
2.73955e-14
2.76178e-14
2.78122e-14
2.79821e-14
1e-15
1e-15
1.00932e-15
1.20159e-15
1.58019e-15
2.16963e-15
2.93585e-15
3.88035e-15
4.99343e-15
6.25444e-15
7.63324e-15
9.09317e-15
1.05938e-14
1.20957e-14
1.35637e-14
1.49688e-14
1.62902e-14
1.75145e-14
1.86351e-14
1.96509e-14
2.05644e-14
2.13808e-14
2.2107e-14
2.27504e-14
2.33188e-14
2.38197e-14
2.42603e-14
2.46474e-14
2.49871e-14
2.52848e-14
2.55457e-14
2.5774e-14
2.59739e-14
2.61487e-14
2.63015e-14
1e-15
1e-15
1.02281e-15
1.22748e-15
1.62269e-15
2.21881e-15
2.98487e-15
3.91912e-15
5.00868e-15
6.22993e-15
7.55174e-15
8.93652e-15
1.03459e-14
1.17436e-14
1.30984e-14
1.43862e-14
1.55901e-14
1.67005e-14
1.77132e-14
1.86286e-14
1.94501e-14
2.01834e-14
2.08349e-14
2.14117e-14
2.19211e-14
2.23699e-14
2.27646e-14
2.31114e-14
2.34156e-14
2.36824e-14
2.3916e-14
2.41207e-14
2.42997e-14
2.44564e-14
2.45934e-14
1e-15
1e-15
1.03625e-15
1.25201e-15
1.661e-15
2.2587e-15
3.01714e-15
3.9319e-15
4.98697e-15
6.1574e-15
7.41046e-15
8.71021e-15
1.00206e-14
1.13091e-14
1.25489e-14
1.372e-14
1.48094e-14
1.58101e-14
1.672e-14
1.75406e-14
1.82759e-14
1.89314e-14
1.95134e-14
2.00284e-14
2.0483e-14
2.08835e-14
2.12357e-14
2.15451e-14
2.18165e-14
2.20546e-14
2.22631e-14
2.24457e-14
2.26056e-14
2.27454e-14
2.28677e-14
1e-15
1e-15
1.04943e-15
1.27466e-15
1.6943e-15
2.28794e-15
3.03146e-15
3.91762e-15
4.92856e-15
6.03768e-15
7.21297e-15
8.42024e-15
9.62666e-15
1.08037e-14
1.19287e-14
1.29856e-14
1.39644e-14
1.48606e-14
1.56734e-14
1.64051e-14
1.70598e-14
1.76429e-14
1.81602e-14
1.86178e-14
1.90217e-14
1.93774e-14
1.96903e-14
1.99651e-14
2.02063e-14
2.04178e-14
2.06031e-14
2.07653e-14
2.09074e-14
2.10317e-14
2.11404e-14
1e-15
1e-15
1.06198e-15
1.29478e-15
1.72134e-15
2.30558e-15
3.02688e-15
3.87637e-15
4.83428e-15
5.87398e-15
6.9646e-15
8.07452e-15
9.17453e-15
1.02401e-14
1.12526e-14
1.21992e-14
1.30727e-14
1.387e-14
1.45916e-14
1.52402e-14
1.582e-14
1.63359e-14
1.67934e-14
1.7198e-14
1.7555e-14
1.78695e-14
1.8146e-14
1.83889e-14
1.86021e-14
1.87891e-14
1.89529e-14
1.90964e-14
1.9222e-14
1.93319e-14
1.9428e-14
1e-15
1e-15
1.07347e-15
1.3116e-15
1.74136e-15
2.31038e-15
3.00326e-15
3.8087e-15
4.70655e-15
5.67066e-15
6.67207e-15
7.68228e-15
8.67583e-15
9.63208e-15
1.05359e-14
1.13774e-14
1.21513e-14
1.28561e-14
1.34928e-14
1.40643e-14
1.45746e-14
1.50286e-14
1.54309e-14
1.57867e-14
1.61006e-14
1.6377e-14
1.66201e-14
1.68337e-14
1.70211e-14
1.71855e-14
1.73295e-14
1.74557e-14
1.75662e-14
1.76629e-14
1.77475e-14
1e-15
1e-15
1.08359e-15
1.32465e-15
1.75331e-15
2.30243e-15
2.96087e-15
3.71642e-15
4.54889e-15
5.43339e-15
6.34345e-15
7.2539e-15
8.14302e-15
8.99378e-15
9.79411e-15
1.05365e-14
1.12174e-14
1.18362e-14
1.23943e-14
1.28948e-14
1.33413e-14
1.37383e-14
1.40901e-14
1.44011e-14
1.46754e-14
1.4917e-14
1.51295e-14
1.53162e-14
1.54801e-14
1.56238e-14
1.57497e-14
1.58601e-14
1.59567e-14
1.60412e-14
1.61152e-14
1e-15
1e-15
1.09169e-15
1.33296e-15
1.75623e-15
2.28079e-15
2.90009e-15
3.60133e-15
4.36498e-15
5.16799e-15
5.98672e-15
6.79944e-15
7.58797e-15
8.3385e-15
9.04158e-15
9.69169e-15
1.02865e-14
1.0826e-14
1.1312e-14
1.17474e-14
1.21357e-14
1.24807e-14
1.27864e-14
1.30565e-14
1.32948e-14
1.35047e-14
1.36893e-14
1.38515e-14
1.39939e-14
1.41187e-14
1.42282e-14
1.43241e-14
1.4408e-14
1.44815e-14
1.45459e-14
1e-15
1e-15
1.09731e-15
1.33949e-15
1.74941e-15
2.24548e-15
2.82199e-15
3.46603e-15
4.15927e-15
4.88089e-15
5.61028e-15
6.32903e-15
7.02222e-15
7.67885e-15
8.29167e-15
8.85669e-15
9.37252e-15
9.83969e-15
1.02601e-14
1.06363e-14
1.09717e-14
1.12696e-14