/*--------------------------------*- C++ -*----------------------------------*\
| =========                 |                                                 |
| \\      /  F ield         | OpenFOAM: The Open Source CFD Toolbox           |
|  \\    /   O peration     | Version:  v1912                                 |
|   \\  /    A nd           | Website:  www.openfoam.com                      |
|    \\/     M anipulation  |                                                 |
\*---------------------------------------------------------------------------*/
FoamFile
{
    version     2.0;
    format      ascii;
    class       volScalarField;
    location    "5000";
    object      nut;
}
// * * * * * * * * * * * * * * * * * * * * * * * * * * * * * * * * * * * * * //

dimensions      [0 2 -1 0 0 0 0];


internalField   nonuniform List<scalar> 
33256
(
0.000404079
0.000400861
0.000397252
0.000393667
0.000389646
0.0003851
0.000379903
0.000373835
0.000366776
0.000358495
0.000348853
0.000337641
0.000324738
0.00031001
0.000293443
0.000275016
0.000254984
0.000233534
0.000189465
0.00013187
8.96564e-05
5.94263e-05
3.83235e-05
2.39982e-05
1.45432e-05
8.50651e-06
4.76318e-06
2.55112e-06
1.27055e-06
6.01884e-07
2.39403e-07
9.44598e-08
2.16474e-08
5.55506e-09
7.45544e-11
0.000404079
0.000400861
0.000397252
0.000393667
0.000389646
0.0003851
0.000379903
0.000373835
0.000366777
0.000358496
0.000348854
0.000337642
0.00032474
0.000310014
0.000293448
0.000275023
0.000254994
0.000233548
0.000189492
0.000131901
8.96891e-05
5.94604e-05
3.83579e-05
2.40306e-05
1.45722e-05
8.53017e-06
4.78273e-06
2.56436e-06
1.28236e-06
6.07156e-07
2.46746e-07
9.55033e-08
2.54137e-08
5.55465e-09
8.95633e-10
0.000404079
0.000400861
0.000397252
0.000393667
0.000389646
0.0003851
0.000379904
0.000373835
0.000366777
0.000358497
0.000348855
0.000337644
0.000324742
0.000310017
0.000293452
0.000275029
0.000255003
0.000233561
0.000189529
0.000131939
8.97264e-05
5.94964e-05
3.83917e-05
2.40611e-05
1.45992e-05
8.5526e-06
4.80251e-06
2.57868e-06
1.29659e-06
6.14258e-07
2.57035e-07
9.7984e-08
3.08171e-08
6.92835e-09
1.91258e-09
0.000404079
0.000400861
0.000397252
0.000393667
0.000389646
0.0003851
0.000379904
0.000373835
0.000366777
0.000358497
0.000348856
0.000337645
0.000324744
0.00031002
0.000293457
0.000275036
0.000255013
0.000233576
0.000189581
0.00013199
8.97754e-05
5.95421e-05
3.84333e-05
2.40979e-05
1.46318e-05
8.58028e-06
4.8274e-06
2.59796e-06
1.31524e-06
6.2567e-07
2.70002e-07
1.03696e-07
3.66715e-08
9.5161e-09
3.22604e-09
0.000404079
0.000400861
0.000397252
0.000393667
0.000389647
0.0003851
0.000379904
0.000373836
0.000366778
0.000358498
0.000348857
0.000337647
0.000324747
0.000310024
0.000293464
0.000275047
0.000255028
0.000233598
0.000189658
0.000132067
8.98503e-05
5.96132e-05
3.84993e-05
2.41574e-05
1.46849e-05
8.62551e-06
4.86702e-06
2.62904e-06
1.34288e-06
6.44578e-07
2.87017e-07
1.14021e-07
4.38171e-08
1.3785e-08
5.32815e-09
0.000404079
0.000400861
0.000397252
0.000393667
0.000389647
0.000385101
0.000379904
0.000373836
0.000366778
0.000358498
0.000348858
0.000337649
0.000324751
0.000310031
0.000293474
0.000275062
0.000255049
0.000233628
0.000189764
0.000132172
8.99522e-05
5.97101e-05
3.85894e-05
2.42389e-05
1.47575e-05
8.68769e-06
4.92096e-06
2.67209e-06
1.37963e-06
6.71483e-07
3.08684e-07
1.28937e-07
5.36263e-08
2.03981e-08
9.08829e-09
0.000404079
0.00040086
0.000397252
0.000393667
0.000389647
0.000385101
0.000379905
0.000373836
0.000366779
0.0003585
0.00034886
0.000337652
0.000324757
0.000310039
0.000293486
0.000275081
0.000255076
0.000233666
0.000189901
0.000132308
9.00845e-05
5.98357e-05
3.87063e-05
2.43446e-05
1.48518e-05
8.76882e-06
4.99097e-06
2.72885e-06
1.4269e-06
7.0747e-07
3.36332e-07
1.48982e-07
6.70101e-08
2.9921e-08
1.5715e-08
0.000404079
0.00040086
0.000397253
0.000393668
0.000389648
0.000385101
0.000379905
0.000373837
0.00036678
0.000358501
0.000348863
0.000337657
0.000324763
0.00031005
0.000293502
0.000275105
0.000255109
0.000233714
0.000190074
0.000132481
9.02522e-05
5.99952e-05
3.88546e-05
2.4479e-05
1.49718e-05
8.87235e-06
5.07994e-06
2.80175e-06
1.48672e-06
7.54028e-07
3.71615e-07
1.75283e-07
8.53067e-08
4.3567e-08
2.61639e-08
0.000404079
0.00040086
0.000397253
0.000393668
0.000389648
0.000385102
0.000379906
0.000373838
0.000366781
0.000358503
0.000348866
0.000337662
0.000324772
0.000310062
0.000293521
0.000275135
0.00025515
0.000233773
0.000190291
0.000132696
9.04613e-05
6.01939e-05
3.90397e-05
2.46469e-05
1.51215e-05
9.00207e-06
5.19107e-06
2.89353e-06
1.56153e-06
8.13053e-07
4.16511e-07
2.09471e-07
1.1023e-07
6.29566e-08
4.20127e-08
0.000404079
0.00040086
0.000397253
0.000393668
0.000389649
0.000385103
0.000379907
0.000373839
0.000366783
0.000358506
0.000348871
0.000337668
0.000324782
0.000310078
0.000293544
0.000275171
0.000255201
0.000233844
0.000190557
0.000132961
9.07183e-05
6.04383e-05
3.92672e-05
2.48536e-05
1.53059e-05
9.16224e-06
5.32809e-06
3.00737e-06
1.65422e-06
8.86958e-07
4.73444e-07
2.5372e-07
1.43961e-07
9.01805e-08
6.5406e-08
0.000404079
0.000400859
0.000397253
0.000393668
0.000389649
0.000385103
0.000379908
0.00037384
0.000366785
0.000358509
0.000348876
0.000337676
0.000324794
0.000310097
0.000293573
0.000275214
0.000255261
0.00023393
0.000190881
0.000133283
9.10306e-05
6.07352e-05
3.95438e-05
2.51051e-05
1.55304e-05
9.35777e-06
5.49536e-06
3.14708e-06
1.76828e-06
9.78799e-07
5.45426e-07
3.10849e-07
1.8929e-07
1.28009e-07
9.91018e-08
0.000404079
0.000400859
0.000397254
0.000393668
0.00038965
0.000385104
0.000379909
0.000373842
0.000366788
0.000358512
0.000348882
0.000337685
0.000324809
0.00031012
0.000293607
0.000275266
0.000255333
0.000234033
0.000191271
0.00013367
9.14065e-05
6.10928e-05
3.9877e-05
2.54083e-05
1.58014e-05
9.59435e-06
5.69799e-06
3.31717e-06
1.90795e-06
1.09242e-06
6.36216e-07
3.84477e-07
2.4979e-07
1.8004e-07
1.46639e-07
0.000404079
0.000400859
0.000397254
0.000393669
0.000389651
0.000385105
0.000379911
0.000373844
0.000366791
0.000358517
0.000348889
0.000337697
0.000324827
0.000310147
0.000293647
0.000275328
0.00025542
0.000234156
0.000191737
0.000134132
9.18556e-05
6.15201e-05
4.02753e-05
2.57714e-05
1.61261e-05
9.8786e-06
5.94204e-06
3.52307e-06
2.07835e-06
1.2326e-06
7.50499e-07
4.79197e-07
3.30007e-07
2.50867e-07
2.12579e-07
0.000404079
0.000400858
0.000397254
0.000393669
0.000389652
0.000385107
0.000379913
0.000373846
0.000366794
0.000358522
0.000348898
0.00033771
0.000324849
0.00031018
0.000293695
0.000275402
0.000255521
0.0002343
0.00019229
0.000134681
9.23887e-05
6.20275e-05
4.07486e-05
2.62034e-05
1.65129e-05
1.02182e-05
6.2346e-06
3.77134e-06
2.28573e-06
1.40532e-06
8.94113e-07
6.00801e-07
4.35688e-07
3.46296e-07
3.02736e-07
0.000404079
0.000400858
0.000397254
0.000393669
0.000389653
0.000385108
0.000379915
0.000373849
0.000366799
0.000358528
0.000348908
0.000337726
0.000324874
0.000310218
0.000293752
0.000275488
0.000255641
0.00023447
0.000192943
0.000135329
9.30181e-05
6.26269e-05
4.1308e-05
2.67149e-05
1.69717e-05
1.06222e-05
6.58411e-06
4.06984e-06
2.53766e-06
1.61791e-06
1.07431e-06
7.56533e-07
5.74057e-07
4.73611e-07
4.24424e-07
0.000404078
0.000400858
0.000397255
0.00039367
0.000389654
0.00038511
0.000379917
0.000373852
0.000366804
0.000358536
0.000348921
0.000337745
0.000324904
0.000310262
0.000293819
0.000275589
0.00025578
0.000234669
0.000193711
0.00013609
9.37577e-05
6.33316e-05
4.19664e-05
2.73178e-05
1.75138e-05
1.11011e-05
7.00052e-06
4.42804e-06
2.84334e-06
1.87944e-06
1.30005e-06
9.55392e-07
7.54125e-07
6.41879e-07
5.86747e-07
0.000404078
0.000400857
0.000397255
0.00039367
0.000389656
0.000385112
0.00037992
0.000373856
0.00036681
0.000358545
0.000348935
0.000337767
0.000324938
0.000310315
0.000293896
0.000275706
0.000255943
0.0002349
0.000194611
0.000136981
9.46233e-05
6.4157e-05
4.27383e-05
2.8026e-05
1.81522e-05
1.16674e-05
7.49566e-06
4.85736e-06
3.21395e-06
2.20098e-06
1.58239e-06
1.20849e-06
9.87049e-07
8.62312e-07
8.00976e-07
0.000404078
0.000400857
0.000397256
0.000393671
0.000389657
0.000385114
0.000379923
0.000373861
0.000366817
0.000358556
0.000348953
0.000337793
0.000324979
0.000310376
0.000293987
0.000275843
0.000256132
0.000235169
0.00019566
0.00013802
9.56329e-05
6.51205e-05
4.36405e-05
2.88556e-05
1.89021e-05
1.23354e-05
8.08354e-06
5.37148e-06
3.66302e-06
2.59607e-06
1.93486e-06
1.52948e-06
1.28654e-06
1.14868e-06
1.08088e-06
0.000404077
0.000400856
0.000397256
0.000393671
0.000389659
0.000385116
0.000379927
0.000373866
0.000366826
0.000358568
0.000348973
0.000337823
0.000325026
0.000310447
0.000294092
0.000276
0.000256351
0.000235479
0.00019688
0.000139228
9.68067e-05
6.6242e-05
4.46921e-05
2.9825e-05
1.97812e-05
1.31223e-05
8.78083e-06
5.98685e-06
4.20692e-06
3.08112e-06
2.37398e-06
1.93498e-06
1.66935e-06
1.51776e-06
1.44325e-06
0.000404076
0.000400855
0.000397257
0.000393672
0.000389661
0.000385119
0.000379931
0.000373873
0.000366836
0.000358583
0.000348996
0.000337858
0.000325081
0.000310529
0.000294214
0.000276182
0.000256603
0.000235837
0.000198295
0.000140628
9.8168e-05
6.7544e-05
4.59153e-05
3.09554e-05
2.08101e-05
1.40482e-05
9.60729e-06
6.72315e-06
4.86536e-06
3.67598e-06
2.91976e-06
2.44518e-06
2.15575e-06
1.9899e-06
1.90845e-06
0.000404075
0.000400855
0.000397257
0.000393673
0.000389663
0.000385122
0.000379936
0.00037388
0.000366847
0.0003586
0.000349023
0.000337899
0.000325144
0.000310624
0.000294354
0.000276392
0.000256892
0.000236248
0.000199932
0.000142246
9.97429e-05
6.90524e-05
4.73351e-05
3.22712e-05
2.20129e-05
1.51367e-05
1.05864e-05
7.60386e-06
5.66197e-06
4.40454e-06
3.59629e-06
3.08437e-06
2.77018e-06
2.58958e-06
2.50096e-06
0.000404074
0.000400854
0.000397258
0.000393674
0.000389665
0.000385126
0.000379942
0.000373889
0.00036686
0.00035862
0.000349054
0.000337947
0.000325217
0.000310733
0.000294516
0.000276631
0.000257224
0.000236719
0.000201821
0.000144114
0.000101561
7.07967e-05
4.89806e-05
3.3801e-05
2.34175e-05
1.64154e-05
1.17459e-05
8.65692e-06
6.62499e-06
5.29537e-06
4.43245e-06
3.88166e-06
3.54187e-06
3.34609e-06
3.25005e-06
0.000404073
0.000400854
0.000397259
0.000393675
0.000389668
0.00038513
0.000379949
0.000373898
0.000366876
0.000358643
0.000349091
0.000338001
0.000325301
0.000310858
0.000294701
0.000276905
0.000257602
0.000237257
0.000203999
0.000146265
0.000103658
7.28107e-05
5.08852e-05
3.55775e-05
2.50565e-05
1.79169e-05
1.31186e-05
9.91551e-06
7.78803e-06
6.38252e-06
5.46263e-06
4.87167e-06
4.50557e-06
4.29423e-06
4.19055e-06
0.000404072
0.000400853
0.00039726
0.000393677
0.000389671
0.000385135
0.000379956
0.000373909
0.000366893
0.000358669
0.000349132
0.000338064
0.000325398
0.000311002
0.000294914
0.000277217
0.000258034
0.000237868
0.000206504
0.000148739
0.000106071
7.51334e-05
5.30873e-05
3.76388e-05
2.69678e-05
1.96796e-05
1.47431e-05
1.14189e-05
9.19082e-06
7.70626e-06
6.72753e-06
6.09534e-06
5.70237e-06
5.47515e-06
5.36356e-06
0.00040407
0.000400852
0.000397261
0.000393678
0.000389674
0.00038514
0.000379964
0.000373922
0.000366913
0.0003587
0.00034918
0.000338136
0.000325508
0.000311166
0.000295156
0.00027757
0.000258525
0.000238559
0.000209378
0.00015158
0.000108847
7.78094e-05
5.5631e-05
4.00291e-05
2.91956e-05
2.1748e-05
1.66648e-05
1.32131e-05
1.08803e-05
9.314e-06
8.27499e-06
7.60081e-06
7.18052e-06
6.93716e-06
6.81746e-06
0.000404068
0.000400851
0.000397262
0.00039368
0.000389677
0.000385146
0.000379974
0.000373937
0.000366936
0.000358735
0.000349234
0.000338219
0.000325634
0.000311354
0.000295433
0.000277971
0.000259083
0.000239334
0.000212664
0.00015484
0.000112036
8.089e-05
5.85673e-05
4.27991e-05
3.17914e-05
2.41744e-05
1.89367e-05
1.53522e-05
1.29111e-05
1.12613e-05
1.01609e-05
9.44428e-06
8.99638e-06
8.73665e-06
8.60865e-06
0.000404066
0.000400851
0.000397263
0.000393682
0.000389682
0.000385153
0.000379985
0.000373954
0.000366962
0.000358775
0.000349296
0.000338313
0.000325777
0.000311568
0.000295748
0.000278424
0.000259719
0.000240183
0.000216467
0.000158593
0.000115702
8.44338e-05
6.19541e-05
4.60073e-05
3.48143e-05
2.7019e-05
2.16203e-05
1.78988e-05
1.53472e-05
1.36125e-05
1.24503e-05
1.16909e-05
1.12153e-05
1.0939e-05
1.08026e-05
0.000404063
0.00040085
0.000397264
0.000393685
0.000389686
0.000385161
0.000379997
0.000373973
0.000366992
0.000358821
0.000349367
0.000338421
0.00032594
0.000311811
0.000296105
0.000278933
0.000260446
0.000241103
0.000220804
0.000162899
0.000119908
8.85046e-05
6.5856e-05
4.97193e-05
3.83317e-05
3.03509e-05
2.47866e-05
2.09252e-05
1.82617e-05
1.64418e-05
1.52178e-05
1.44158e-05
1.39125e-05
1.36195e-05
1.34745e-05
0.00040406
0.000400849
0.000397266
0.000393688
0.000389691
0.00038517
0.00038001
0.000373995
0.000367025
0.000358874
0.000349447
0.000338544
0.000326125
0.000312086
0.000296509
0.000279505
0.000261276
0.000242137
0.000223148
0.000167778
0.000124711
9.31678e-05
7.03429e-05
5.40086e-05
4.24196e-05
3.42487e-05
2.8516e-05
2.45138e-05
2.17384e-05
1.98338e-05
1.85487e-05
1.77046e-05
1.71737e-05
1.6864e-05
1.67103e-05
0.000404056
0.000400848
0.000397267
0.000393691
0.000389697
0.00038518
0.000380026
0.000374021
0.000367064
0.000358934
0.000349538
0.000338684
0.000326335
0.000312398
0.000296965
0.000280148
0.000262213
0.000243346
0.000224639
0.000173278
0.000130165
9.84922e-05
7.54918e-05
5.8957e-05
4.71638e-05
3.88012e-05
3.29001e-05
2.8758e-05
2.58723e-05
2.38845e-05
2.25395e-05
2.1654e-05
2.10959e-05
2.07697e-05
2.06073e-05
0.000404052
0.000400847
0.000397269
0.000393695
0.000389704
0.000385192
0.000380043
0.000374049
0.000367107
0.000359002
0.000349641
0.000338843
0.000326571
0.00031275
0.000297478
0.000280871
0.000263255
0.000244747
0.000226382
0.000179525
0.00013636
0.000104566
8.1394e-05
6.46599e-05
5.26632e-05
4.41104e-05
3.80432e-05
3.37642e-05
3.0771e-05
2.87026e-05
2.72994e-05
2.63736e-05
2.5789e-05
2.54465e-05
2.52756e-05
0.000404047
0.000400846
0.000397271
0.0003937
0.000389711
0.000385205
0.000380063
0.000374082
0.000367156
0.00035908
0.000349758
0.000339022
0.000326838
0.000313147
0.000298053
0.000281682
0.000264406
0.000246323
0.000228382
0.000186664
0.000143424
0.000111505
8.81638e-05
7.12322e-05
5.90345e-05
5.02952e-05
4.40661e-05
3.96545e-05
3.65577e-05
3.44118e-05
3.29525e-05
3.19878e-05
3.13774e-05
3.1019e-05
3.08396e-05
0.000404041
0.000400845
0.000397274
0.000393705
0.00038972
0.00038522
0.000380086
0.000374118
0.000367211
0.000359167
0.00034989
0.000339225
0.000327139
0.000313592
0.000298697
0.000282589
0.000265673
0.000248065
0.000230615
0.000194834
0.000151503
0.000119451
9.594e-05
7.88117e-05
6.64157e-05
5.74941e-05
5.11083e-05
4.65692e-05
4.33732e-05
4.11529e-05
3.96397e-05
3.86374e-05
3.80019e-05
3.76279e-05
3.74398e-05
0.000404035
0.000400843
0.000397276
0.000393711
0.000389729
0.000385237
0.000380111
0.00037416
0.000367274
0.000359266
0.000350039
0.000339453
0.000327477
0.000314091
0.000299414
0.000283602
0.000267064
0.000249975
0.000233047
0.000204224
0.000160776
0.000128572
0.000104882
8.75553e-05
7.49632e-05
6.58641e-05
5.93276e-05
5.46662e-05
5.13752e-05
4.90835e-05
4.75185e-05
4.64798e-05
4.58196e-05
4.54299e-05
4.52329e-05
0.000404028
0.000400842
0.000397279
0.000393717
0.00038974
0.000385257
0.00038014
0.000374207
0.000367345
0.000359378
0.000350207
0.00033971
0.000327856
0.000314649
0.000300213
0.000284726
0.000268588
0.000252066
0.000235622
0.000214976
0.000171411
0.000139027
0.000115148
9.76242e-05
8.48415e-05
7.5572e-05
6.88917e-05
6.41145e-05
6.07336e-05
5.83742e-05
5.67596e-05
5.56856e-05
5.50013e-05
5.45958e-05
5.43893e-05
0.000404019
0.00040084
0.000397283
0.000393725
0.000389753
0.000385278
0.000380172
0.000374261
0.000367425
0.000359504
0.000350396
0.000339998
0.00032828
0.000315271
0.000301099
0.000285969
0.000270255
0.000254339
0.000238384
0.000223916
0.000183423
0.000150906
0.000126867
0.000109168
9.62123e-05
8.67871e-05
7.99755e-05
7.50922e-05
7.16284e-05
6.92063e-05
6.75453e-05
6.64379e-05
6.57302e-05
6.5309e-05
6.50928e-05
0.00040401
0.000400838
0.000397287
0.000393734
0.000389767
0.000385303
0.000380209
0.000374321
0.000367515
0.000359646
0.000350609
0.00034032
0.000328755
0.000315962
0.000302079
0.000287337
0.000272082
0.000256786
0.000241476
0.000227433
0.000196953
0.000164367
0.000140203
0.000122366
0.000109263
9.97019e-05
9.2775e-05
8.77977e-05
8.42595e-05
8.17801e-05
8.00763e-05
7.89376e-05
7.82075e-05
7.77709e-05
7.75448e-05
0.000403999
0.000400836
0.000397291
0.000393743
0.000389783
0.000385331
0.000380251
0.000374388
0.000367618
0.000359804
0.000350848
0.000340679
0.000329284
0.000316727
0.000303161
0.000288835
0.000274084
0.000259397
0.000244913
0.000231292
0.000212381
0.000179705
0.00015541
0.000137462
0.000124234
0.000114551
0.000107522
0.000102461
9.88568e-05
9.63253e-05
9.45815e-05
9.34127e-05
9.26605e-05
9.2208e-05
9.19712e-05
0.000403988
0.000400834
0.000397296
0.000393754
0.000389801
0.000385362
0.000380299
0.000374464
0.000367733
0.000359982
0.000351116
0.00034108
0.000329872
0.000317573
0.000304351
0.000290469
0.000276264
0.000262193
0.000248569
0.000235631
0.000224521
0.000197208
0.000172771
0.000154716
0.00014139
0.000131601
0.000124475
0.000119336
0.00011567
0.000113089
0.000111308
0.00011011
0.000109336
0.000108867
0.000108618
0.000403974
0.000400831
0.000397302
0.000393766
0.000389822
0.000385397
0.000380352
0.000374549
0.000367863
0.000360181
0.000351416
0.000341525
0.000330523
0.000318505
0.000305654
0.000292244
0.00027862
0.000265198
0.000252372
0.000240295
0.000229617
0.000216945
0.00019256
0.000174344
0.000160949
0.000151108
0.000143921
0.000138716
0.000134987
0.000132356
0.000130534
0.000129305
0.000128506
0.000128018
0.000127755
0.00040396
0.000400828
0.000397308
0.00039378
0.000389846
0.000385436
0.000380413
0.000374644
0.000368009
0.000360404
0.00035175
0.00034202
0.000331242
0.000319528
0.000307076
0.000294167
0.000281149
0.000268415
0.000256339
0.000245182
0.000235128
0.000226779
0.000214894
0.000196727
0.000183231
0.000173326
0.000166093
0.000160854
0.000157089
0.000154424
0.000152572
0.000151317
0.000150496
0.000149989
0.000149712
0.000403943
0.000400825
0.000397315
0.000393795
0.000389873
0.00038548
0.000380482
0.000374751
0.000368172
0.000360652
0.000352122
0.000342567
0.000332034
0.000320648
0.000308621
0.000296241
0.000283853
0.000271831
0.000260518
0.000250198
0.000241018
0.000233145
0.000226774
0.000221667
0.00020862
0.000198668
0.000191398
0.000186125
0.000182337
0.000179657
0.000177794
0.000176525
0.00017569
0.000175171
0.000174882
0.000403924
0.00040082
0.000397323
0.000393812
0.000389904
0.000385529
0.000380559
0.000374871
0.000368355
0.000360928
0.000352534
0.000343171
0.000332903
0.000321869
0.000310293
0.000298466
0.000286729
0.000275434
0.000264896
0.000255365
0.000246999
0.000239856
0.000233967
0.000229291
0.000225598
0.000222777
0.000220084
0.00021487
0.000211075
0.000208384
0.000206507
0.000205224
0.000204377
0.000203847
0.000203547
0.000403904
0.000400816
0.000397333
0.000393831
0.000389938
0.000385585
0.000380645
0.000375004
0.000368559
0.000361235
0.00035299
0.000343836
0.000333853
0.000323195
0.000312093
0.000300843
0.000289773
0.000279213
0.000269448
0.000260691
0.000253072
0.000246621
0.000241322
0.000237074
0.000233787
0.00023124
0.000229311
0.000227892
0.00022686
0.000226105
0.000225556
0.000225164
0.000224892
0.000224709
0.000224595
0.000403881
0.000400811
0.000397343
0.000393852
0.000389976
0.000385646
0.000380742
0.000375153
0.000368786
0.000361575
0.000353493
0.000344566
0.000334888
0.000324628
0.000314024
0.000303369
0.000292977
0.000283154
0.000274153
0.000266152
0.000259246
0.000253445
0.000248697
0.0002449
0.000241927
0.000239646
0.00023793
0.000236664
0.000235726
0.000235039
0.000234546
0.000234201
0.000233964
0.000233807
0.000233712
0.000403856
0.000400805
0.000397355
0.000393876
0.00039002
0.000385716
0.000380851
0.00037532
0.000369038
0.000361952
0.000354046
0.000345363
0.000336012
0.000326171
0.000316084
0.000306038
0.000296331
0.000287241
0.000278988
0.000271717
0.000265491
0.000260299
0.000256072
0.000252704
0.000250069
0.000248039
0.000246502
0.000245356
0.000244511
0.000243895
0.000243452
0.000243137
0.000242917
0.000242769
0.000242676
0.000403828
0.000400799
0.000397368
0.000393903
0.000390068
0.000385793
0.000380972
0.000375505
0.000369318
0.000362367
0.000354653
0.000346231
0.000337226
0.000327824
0.00031827
0.000308843
0.000299822
0.000291454
0.000283927
0.000277353
0.000271769
0.000267145
0.000263401
0.00026043
0.000258112
0.000256329
0.000254977
0.000253963
0.000253211
0.000252657
0.000252253
0.000251964
0.000251761
0.000251623
0.000251536
0.000403797
0.000400792
0.000397382
0.000393933
0.000390123
0.00038588
0.000381106
0.00037571
0.000369627
0.000362824
0.000355316
0.000347173
0.000338532
0.000329586
0.000320579
0.000311776
0.000303434
0.000295771
0.000288943
0.00028303
0.000278046
0.000273946
0.000270643
0.000268032
0.000265999
0.000264438
0.000263252
0.000262361
0.000261699
0.00026121
0.000260855
0.000260598
0.000260417
0.000260292
0.000260211
0.000403763
0.000400785
0.000397397
0.000393967
0.000390183
0.000385976
0.000381256
0.000375938
0.000369967
0.000363324
0.000356037
0.000348191
0.00033993
0.000331455
0.000323002
0.000314823
0.00030715
0.00030017
0.000294006
0.000288715
0.000284287
0.000280666
0.000277764
0.000275476
0.000273699
0.000272335
0.000271298
0.000270518
0.000269935
0.000269504
0.000269188
0.000268958
0.000268794
0.000268679
0.000268604
0.000403725
0.000400778
0.000397415
0.000394004
0.00039025
0.000386083
0.000381422
0.00037619
0.000370341
0.000363871
0.00035682
0.000349286
0.000341421
0.000333426
0.000325532
0.000317971
0.00031095
0.000304624
0.000299089
0.000294376
0.000290459
0.000287274
0.000284731
0.000282732
0.000281181
0.000279991
0.000279085
0.000278402
0.00027789
0.00027751
0.000277229
0.000277024
0.000276876
0.000276771
0.000276701
0.000403684
0.00040077
0.000397434
0.000394046
0.000390325
0.000386203
0.000381606
0.000376467
0.000370752
0.000364466
0.000357666
0.000350457
0.000343001
0.000335495
0.000328159
0.000321205
0.000314812
0.000309108
0.000304162
0.000299982
0.000296531
0.000293739
0.000291517
0.000289774
0.000288423
0.000287385
0.000286594
0.000285996
0.000285546
0.000285209
0.000284959
0.000284775
0.00028464
0.000284544
0.000284478
0.000403639
0.000400761
0.000397454
0.000394093
0.000390408
0.000386335
0.000381809
0.000376771
0.0003712
0.000365112
0.000358575
0.000351706
0.000344667
0.000337653
0.000330869
0.000324506
0.000318715
0.000313597
0.000309196
0.000305505
0.000302475
0.000300034
0.000298097
0.00029658
0.000295404
0.000294499
0.000293809
0.000293284
0.000292888
0.00029259
0.000292366
0.0002922
0.000292078
0.000291988
0.000291926
0.000403589
0.000400753
0.000397477
0.000394145
0.000390501
0.000386481
0.000382032
0.000377105
0.000371687
0.00036581
0.000359549
0.000353029
0.000346414
0.000339892
0.00033365
0.000327856
0.000322636
0.000318065
0.000314166
0.000310918
0.000308265
0.000306136
0.000304451
0.000303132
0.000302108
0.00030132
0.000300716
0.000300255
0.000299905
0.00029964
0.000299441
0.00029929
0.000299178
0.000299095
0.000299036
0.000403535
0.000400743
0.000397502
0.000394203
0.000390602
0.000386642
0.000382277
0.000377469
0.000372216
0.000366559
0.000360586
0.000354424
0.000348237
0.0003422
0.000336485
0.000331235
0.000326552
0.000322487
0.000319046
0.000316197
0.000313881
0.000312027
0.000310562
0.000309416
0.000308525
0.000307837
0.000307308
0.000306902
0.000306593
0.000306357
0.000306177
0.000306041
0.000305937
0.00030586
0.000305804
0.000403477
0.000400734
0.000397529
0.000394267
0.000390715
0.000386819
0.000382546
0.000377866
0.000372787
0.000367362
0.000361685
0.000355887
0.000350126
0.000344566
0.000339358
0.000334624
0.000330441
0.00032684
0.000323813
0.000321321
0.000319303
0.000317691
0.000316418
0.000315421
0.000314645
0.000314044
0.000313579
0.000313222
0.000312947
0.000312736
0.000312574
0.000312449
0.000312354
0.000312281
0.000312228
0.000403414
0.000400724
0.000397559
0.000394337
0.000390838
0.000387013
0.000382839
0.000378295
0.000373401
0.000368217
0.000362844
0.000357412
0.000352073
0.000346977
0.000342254
0.000338003
0.000334281
0.000331103
0.000328449
0.000326273
0.000324516
0.000323116
0.000322009
0.000321142
0.000320465
0.000319938
0.00031953
0.000319213
0.000318968
0.000318779
0.000318632
0.000318518
0.000318429
0.000318361
0.00031831
0.000403347
0.000400713
0.000397592
0.000394415
0.000390974
0.000387225
0.000383157
0.000378758
0.000374057
0.000369123
0.000364058
0.000358993
0.000354068
0.000349418
0.000345154
0.000341354
0.000338055
0.000335258
0.000332935
0.000331038
0.00032951
0.000328293
0.000327331
0.000326575
0.000325983
0.00032552
0.00032516
0.000324879
0.000324659
0.000324488
0.000324354
0.000324249
0.000324167
0.000324103
0.000324054
0.000403275
0.000400702
0.000397627
0.000394499
0.000391122
0.000387456
0.000383501
0.000379256
0.000374757
0.000370077
0.000365324
0.000360622
0.0003561
0.000351876
0.000348042
0.000344657
0.000341742
0.000339287
0.000337257
0.000335605
0.000334276
0.000333218
0.00033238
0.000331719
0.0003312
0.000330793
0.000330474
0.000330223
0.000330026
0.000329871
0.000329748
0.000329651
0.000329574
0.000329513
0.000329466
0.000403198
0.000400691
0.000397667
0.000394591
0.000391283
0.000387707
0.000383872
0.000379788
0.000375497
0.000371078
0.000366636
0.00036229
0.000358155
0.000354335
0.000350902
0.000347896
0.000345328
0.000343176
0.000341405
0.000339966
0.00033881
0.000337888
0.000337156
0.000336578
0.000336121
0.000335761
0.000335477
0.000335252
0.000335074
0.000334933
0.00033482
0.00033473
0.000334658
0.000334601
0.000334555
0.000403117
0.000400678
0.00039771
0.000394691
0.000391458
0.000387978
0.000384271
0.000380354
0.000376277
0.00037212
0.000367987
0.000363987
0.000360224
0.000356781
0.000353717
0.000351057
0.000348798
0.000346915
0.000345369
0.000344116
0.000343108
0.000342304
0.000341663
0.000341155
0.000340752
0.000340432
0.000340178
0.000339976
0.000339814
0.000339685
0.000339581
0.000339497
0.000339429
0.000339374
0.00033933
0.000403033
0.000400664
0.000397756
0.000394799
0.000391646
0.000388269
0.000384696
0.000380953
0.000377094
0.0003732
0.00036937
0.000365704
0.000362291
0.000359201
0.000356475
0.000354125
0.000352141
0.000350494
0.000349145
0.000348051
0.000347172
0.000346467
0.000345905
0.000345457
0.000345099
0.000344814
0.000344586
0.000344403
0.000344255
0.000344136
0.00034404
0.000343961
0.000343897
0.000343845
0.000343803
0.000402944
0.000400649
0.000397807
0.000394916
0.000391849
0.00038858
0.000385147
0.000381583
0.000377944
0.000374311
0.000370777
0.00036743
0.000364347
0.000361581
0.000359161
0.000357089
0.000355348
0.000353907
0.000352728
0.000351773
0.000351002
0.000350384
0.000349888
0.000349491
0.000349173
0.000348917
0.000348711
0.000348544
0.000348409
0.000348299
0.000348209
0.000348136
0.000348075
0.000348025
0.000347984
0.000402852
0.000400633
0.000397862
0.000395041
0.000392065
0.000388911
0.000385623
0.000382241
0.000378824
0.000375447
0.000372198
0.000369154
0.000366378
0.000363909
0.000361765
0.000359939
0.000358411
0.000357149
0.000356118
0.000355281
0.000354604
0.000354059
0.00035362
0.000353266
0.000352981
0.000352751
0.000352564
0.000352411
0.000352287
0.000352185
0.000352101
0.000352032
0.000351974
0.000351926
0.000351887
0.000402758
0.000400613
0.00039792
0.000395174
0.000392295
0.000389262
0.000386123
0.000382926
0.000379728
0.000376602
0.000373626
0.000370866
0.000368373
0.000366174
0.000364276
0.000362668
0.000361326
0.00036022
0.000359315
0.000358579
0.000357982
0.0003575
0.000357109
0.000356793
0.000356536
0.000356327
0.000356157
0.000356017
0.000355902
0.000355807
0.000355728
0.000355662
0.000355608
0.000355562
0.000355524
0.000402662
0.000400593
0.000397982
0.000395316
0.000392538
0.00038963
0.000386644
0.000383632
0.000380651
0.000377767
0.000375051
0.000372556
0.000370322
0.000368366
0.000366687
0.00036527
0.00036409
0.000363118
0.000362321
0.000361672
0.000361144
0.000360714
0.000360365
0.000360081
0.000359849
0.000359658
0.000359502
0.000359373
0.000359266
0.000359177
0.000359103
0.000359041
0.000358989
0.000358945
0.000358908
0.000402565
0.000400571
0.000398048
0.000395466
0.000392793
0.000390014
0.000387184
0.000384357
0.000381587
0.000378936
0.000376463
0.000374214
0.000372215
0.000370476
0.000368991
0.000367742
0.000366702
0.000365844
0.000365141
0.000364565
0.000364095
0.000363712
0.000363398
0.000363141
0.00036293
0.000362755
0.000362611
0.000362492
0.000362392
0.000362308
0.000362238
0.000362179
0.00036213
0.000362088
0.000362052
0.000402469
0.000400549
0.000398118
0.000395624
0.000393059
0.000390413
0.00038774
0.000385095
0.00038253
0.0003801
0.000377855
0.00037583
0.000374044
0.000372499
0.000371184
0.00037008
0.000369161
0.000368402
0.000367778
0.000367266
0.000366846
0.000366501
0.000366218
0.000365984
0.000365791
0.00036563
0.000365497
0.000365386
0.000365292
0.000365214
0.000365147
0.000365091
0.000365044
0.000365003
0.000364969
0.000402374
0.000400526
0.000398192
0.00039579
0.000393336
0.000390825
0.000388308
0.000385841
0.000383473
0.000381252
0.000379218
0.000377398
0.000375802
0.000374428
0.000373262
0.000372283
0.000371469
0.000370795
0.000370239
0.000369781
0.000369403
0.000369092
0.000368834
0.000368621
0.000368443
0.000368295
0.000368171
0.000368067
0.000367979
0.000367905
0.000367842
0.000367789
0.000367743
0.000367705
0.000367672
0.000402281
0.000400503
0.000398268
0.000395961
0.00039362
0.000391245
0.000388883
0.00038659
0.00038441
0.000382384
0.000380544
0.000378909
0.000377483
0.000376259
0.000375223
0.000374353
0.000373629
0.000373028
0.00037253
0.000372118
0.000371777
0.000371494
0.000371259
0.000371063
0.000370899
0.000370761
0.000370646
0.000370548
0.000370465
0.000370395
0.000370335
0.000370284
0.000370241
0.000370203
0.000370172
0.000402192
0.000400481
0.000398346
0.000396139
0.000393912
0.000391671
0.000389463
0.000387336
0.000385334
0.000383489
0.000381826
0.000380357
0.000379081
0.00037799
0.000377066
0.000376291
0.000375644
0.000375105
0.000374657
0.000374285
0.000373975
0.000373716
0.000373501
0.00037332
0.000373168
0.00037304
0.000372931
0.000372839
0.000372761
0.000372695
0.000372638
0.000372589
0.000372548
0.000372512