/*--------------------------------*- C++ -*----------------------------------*\
| =========                 |                                                 |
| \\      /  F ield         | OpenFOAM: The Open Source CFD Toolbox           |
|  \\    /   O peration     | Version:  v1912                                 |
|   \\  /    A nd           | Website:  www.openfoam.com                      |
|    \\/     M anipulation  |                                                 |
\*---------------------------------------------------------------------------*/
FoamFile
{
    version     2.0;
    format      ascii;
    class       volVectorField;
    location    "5000";
    object      U;
}
// * * * * * * * * * * * * * * * * * * * * * * * * * * * * * * * * * * * * * //

dimensions      [0 1 -1 0 0 0 0];


internalField   nonuniform List<vector> 
33256
(
(5.39989 7.22241e-07 0)
(5.39924 1.94088e-06 0)
(5.39782 3.44605e-06 0)
(5.39597 4.96459e-06 0)
(5.39369 6.79196e-06 0)
(5.39103 8.94474e-06 0)
(5.388 1.1547e-05 0)
(5.38462 1.47128e-05 0)
(5.38087 1.85902e-05 0)
(5.37674 2.33579e-05 0)
(5.37222 2.92403e-05 0)
(5.36729 3.65176e-05 0)
(5.36191 4.55457e-05 0)
(5.35605 5.67768e-05 0)
(5.34968 7.07799e-05 0)
(5.34274 8.83424e-05 0)
(5.33517 0.000110332 0)
(5.32692 0.000138068 0)
(5.31788 0.000173608 0)
(5.30793 0.000219047 0)
(5.29696 0.000277251 0)
(5.28482 0.00035251 0)
(5.27131 0.000450766 0)
(5.25619 0.000580315 0)
(5.23915 0.000753935 0)
(5.21974 0.000989343 0)
(5.19745 0.00131937 0)
(5.17125 0.00178274 0)
(5.14035 0.00249698 0)
(5.10141 0.00352159 0)
(5.05485 0.00554455 0)
(4.98262 0.0082698 0)
(4.90497 0.0179876 0)
(4.67998 0.0329221 0)
(4.55278 0.224396 0)
(5.39989 2.21101e-06 0)
(5.39924 5.94223e-06 0)
(5.39782 1.05501e-05 0)
(5.39597 1.51993e-05 0)
(5.39369 2.07938e-05 0)
(5.39103 2.73846e-05 0)
(5.38801 3.53515e-05 0)
(5.38462 4.50437e-05 0)
(5.38087 5.69142e-05 0)
(5.37674 7.15102e-05 0)
(5.37222 8.95188e-05 0)
(5.36729 0.000111797 0)
(5.36191 0.000139436 0)
(5.35605 0.000173817 0)
(5.34968 0.000216683 0)
(5.34274 0.000270443 0)
(5.33517 0.00033775 0)
(5.32692 0.000422636 0)
(5.31788 0.000531391 0)
(5.30794 0.000670378 0)
(5.29697 0.000848336 0)
(5.28483 0.00107828 0)
(5.27133 0.0013782 0)
(5.25622 0.00177325 0)
(5.2392 0.00230205 0)
(5.21982 0.00301843 0)
(5.19757 0.0040207 0)
(5.17145 0.00542818 0)
(5.14067 0.00758257 0)
(5.10208 0.0106938 0)
(5.0559 0.0166559 0)
(4.98645 0.0249942 0)
(4.91054 0.0515559 0)
(4.72781 0.0942024 0)
(4.64963 0.353549 0)
(5.39989 3.79121e-06 0)
(5.39924 1.01901e-05 0)
(5.39782 1.80911e-05 0)
(5.39597 2.60642e-05 0)
(5.39369 3.56575e-05 0)
(5.39103 4.69596e-05 0)
(5.38801 6.06211e-05 0)
(5.38462 7.72412e-05 0)
(5.38087 9.75965e-05 0)
(5.37674 0.000122625 0)
(5.37222 0.000153505 0)
(5.36729 0.000191707 0)
(5.36191 0.000239098 0)
(5.35606 0.00029805 0)
(5.34968 0.000371549 0)
(5.34275 0.000463721 0)
(5.33518 0.000579112 0)
(5.32692 0.000724626 0)
(5.31789 0.000911035 0)
(5.30795 0.00114917 0)
(5.29699 0.00145399 0)
(5.28486 0.00184762 0)
(5.27137 0.00236068 0)
(5.25628 0.00303588 0)
(5.23929 0.00393859 0)
(5.21996 0.00516038 0)
(5.19778 0.00686536 0)
(5.17181 0.00925945 0)
(5.14127 0.0128899 0)
(5.1033 0.0181735 0)
(5.05787 0.0278748 0)
(4.9928 0.0420868 0)
(4.91984 0.0803926 0)
(4.7863 0.143271 0)
(4.72311 0.383319 0)
(5.39989 5.4687e-06 0)
(5.39924 1.46997e-05 0)
(5.39782 2.60965e-05 0)
(5.39597 3.75982e-05 0)
(5.39369 5.14365e-05 0)
(5.39103 6.77398e-05 0)
(5.38801 8.74466e-05 0)
(5.38462 0.000111421 0)
(5.38087 0.000140783 0)
(5.37674 0.000176887 0)
(5.37222 0.00022143 0)
(5.36729 0.000276534 0)
(5.36191 0.000344892 0)
(5.35606 0.000429924 0)
(5.34969 0.000535934 0)
(5.34275 0.000668872 0)
(5.33518 0.00083529 0)
(5.32693 0.00104513 0)
(5.3179 0.00131392 0)
(5.30797 0.00165722 0)
(5.29701 0.00209658 0)
(5.2849 0.00266378 0)
(5.27143 0.00340276 0)
(5.25637 0.00437484 0)
(5.23942 0.00567343 0)
(5.22017 0.00742967 0)
(5.19812 0.0098748 0)
(5.17237 0.0133053 0)
(5.1422 0.0184609 0)
(5.10513 0.0259921 0)
(5.06099 0.0392716 0)
(5.00133 0.0592118 0)
(4.93404 0.105728 0)
(4.84044 0.175812 0)
(4.7877 0.371691 0)
(5.39989 7.2494e-06 0)
(5.39924 1.94871e-05 0)
(5.39782 3.45946e-05 0)
(5.39597 4.98423e-05 0)
(5.39369 6.81868e-05 0)
(5.39103 8.97993e-05 0)
(5.38801 0.000115923 0)
(5.38462 0.000147705 0)
(5.38087 0.000186628 0)
(5.37674 0.000234487 0)
(5.37222 0.000293534 0)
(5.36729 0.000366578 0)
(5.36191 0.000457188 0)
(5.35606 0.000569899 0)
(5.34969 0.00071041 0)
(5.34275 0.000886602 0)
(5.33519 0.00110715 0)
(5.32694 0.00138522 0)
(5.31792 0.00174136 0)
(5.30799 0.00219612 0)
(5.29705 0.00277799 0)
(5.28495 0.00352892 0)
(5.27151 0.00450678 0)
(5.25649 0.00579232 0)
(5.23961 0.0075079 0)
(5.22047 0.00982533 0)
(5.19859 0.0130424 0)
(5.17317 0.0175475 0)
(5.14353 0.0242495 0)
(5.10765 0.0340377 0)
(5.06539 0.0506049 0)
(5.01161 0.0756894 0)
(4.95264 0.126526 0)
(4.88707 0.202606 0)
(4.8518 0.35441 0)
(5.39989 9.13964e-06 0)
(5.39924 2.45694e-05 0)
(5.39782 4.36158e-05 0)
(5.39597 6.28403e-05 0)
(5.39369 8.59682e-05 0)
(5.39103 0.000113217 0)
(5.38801 0.000146153 0)
(5.38462 0.000186221 0)
(5.38087 0.000235293 0)
(5.37674 0.00029563 0)
(5.37222 0.00037007 0)
(5.36729 0.000462155 0)
(5.36192 0.000576382 0)
(5.35606 0.000718463 0)
(5.3497 0.000895581 0)
(5.34276 0.00111766 0)
(5.3352 0.00139562 0)
(5.32696 0.00174602 0)
(5.31794 0.00219472 0)
(5.30803 0.00276753 0)
(5.2971 0.00350021 0)
(5.28503 0.00444533 0)
(5.27162 0.00567528 0)
(5.25666 0.00729087 0)
(5.23987 0.00944399 0)
(5.22087 0.0123476 0)
(5.19923 0.016364 0)
(5.17423 0.021971 0)
(5.14529 0.0302166 0)
(5.11089 0.0422073 0)
(5.07109 0.0616985 0)
(5.02339 0.0909646 0)
(4.97371 0.14366 0)
(4.92803 0.219519 0)
(4.91072 0.341116 0)
(5.39989 1.11461e-05 0)
(5.39924 2.99647e-05 0)
(5.39782 5.31922e-05 0)
(5.39597 7.66384e-05 0)
(5.39369 0.000104844 0)
(5.39103 0.000138075 0)
(5.38801 0.000178242 0)
(5.38462 0.000227107 0)
(5.38087 0.000286951 0)
(5.37674 0.000360532 0)
(5.37223 0.00045131 0)
(5.36729 0.000563602 0)
(5.36192 0.00070289 0)
(5.35607 0.000876134 0)
(5.3497 0.00109209 0)
(5.34277 0.00136283 0)
(5.33522 0.00170167 0)
(5.32698 0.00212872 0)
(5.31797 0.00267547 0)
(5.30807 0.00337319 0)
(5.29717 0.00426532 0)
(5.28512 0.00541542 0)
(5.27176 0.00691092 0)
(5.25687 0.00887319 0)
(5.2402 0.0114838 0)
(5.22139 0.0149967 0)
(5.20005 0.0198342 0)
(5.17559 0.0265581 0)
(5.14754 0.0363195 0)
(5.11488 0.0503944 0)
(5.078 0.0723838 0)
(5.03643 0.104738 0)
(4.99595 0.157449 0)
(4.96507 0.229662 0)
(4.96091 0.328842 0)
(5.39989 1.3276e-05 0)
(5.39924 3.56923e-05 0)
(5.39782 6.33578e-05 0)
(5.39597 9.12858e-05 0)
(5.39369 0.000124881 0)
(5.39103 0.000164463 0)
(5.38801 0.000212306 0)
(5.38462 0.000270507 0)
(5.38087 0.000341786 0)
(5.37674 0.000429423 0)
(5.37223 0.00053754 0)
(5.3673 0.000671275 0)
(5.36192 0.000837154 0)
(5.35607 0.00104346 0)
(5.34971 0.0013006 0)
(5.34278 0.00162294 0)
(5.33523 0.0020263 0)
(5.32701 0.00253456 0)
(5.31801 0.00318509 0)
(5.30813 0.0040149 0)
(5.29725 0.0050754 0)
(5.28524 0.00644156 0)
(5.27194 0.00821619 0)
(5.25715 0.0105415 0)
(5.24062 0.0136285 0)
(5.22204 0.0177707 0)
(5.20109 0.0234446 0)
(5.17727 0.0312852 0)
(5.1503 0.0425063 0)
(5.11963 0.0584863 0)
(5.08603 0.0824997 0)
(5.05046 0.116842 0)
(5.01852 0.168206 0)
(4.99878 0.234901 0)
(5.00285 0.316361 0)
(5.39989 1.55369e-05 0)
(5.39924 4.17727e-05 0)
(5.39782 7.41489e-05 0)
(5.39597 0.000106835 0)
(5.39369 0.000146152 0)
(5.39103 0.000192475 0)
(5.38801 0.000248465 0)
(5.38462 0.000316577 0)
(5.38087 0.00039999 0)
(5.37675 0.000502546 0)
(5.37223 0.000629063 0)
(5.3673 0.000785552 0)
(5.36193 0.000979642 0)
(5.35608 0.00122101 0)
(5.34972 0.00152183 0)
(5.3428 0.00189887 0)
(5.33526 0.00237059 0)
(5.32704 0.00296483 0)
(5.31806 0.00372512 0)
(5.3082 0.00469447 0)
(5.29735 0.00593254 0)
(5.28539 0.00752601 0)
(5.27217 0.00959332 0)
(5.25749 0.0122976 0)
(5.24114 0.015878 0)
(5.22285 0.0206656 0)
(5.20235 0.0271826 0)
(5.1793 0.0361221 0)
(5.1536 0.0487175 0)
(5.12513 0.0663705 0)
(5.09502 0.0919041 0)
(5.06519 0.127211 0)
(5.04084 0.176244 0)
(5.02941 0.236531 0)
(5.03837 0.303787 0)
(5.39989 1.79367e-05 0)
(5.39924 4.82276e-05 0)
(5.39782 8.56038e-05 0)
(5.39597 0.000123341 0)
(5.39369 0.000168731 0)
(5.39103 0.000222209 0)
(5.38801 0.000286847 0)
(5.38462 0.000365478 0)
(5.38087 0.000461771 0)
(5.37675 0.000580158 0)
(5.37223 0.0007262 0)
(5.3673 0.000906829 0)
(5.36193 0.00113084 0)
(5.35609 0.0014094 0)
(5.34973 0.00175653 0)
(5.34282 0.00219152 0)
(5.33528 0.00273564 0)
(5.32708 0.00342084 0)
(5.31812 0.00429714 0)
(5.30828 0.00541372 0)
(5.29748 0.00683878 0)
(5.28558 0.0086709 0)
(5.27244 0.0110442 0)
(5.2579 0.0141423 0)
(5.24177 0.0182311 0)
(5.22382 0.023675 0)
(5.20387 0.031032 0)
(5.18172 0.0410333 0)
(5.15744 0.0548876 0)
(5.13135 0.0739392 0)
(5.10484 0.100481 0)
(5.08035 0.135856 0)
(5.06251 0.181887 0)
(5.05719 0.235559 0)
(5.06884 0.291403 0)
(5.39989 2.0484e-05 0)
(5.39924 5.50801e-05 0)
(5.39782 9.77633e-05 0)
(5.39597 0.000140862 0)
(5.39369 0.000192698 0)
(5.39103 0.000253772 0)
(5.38801 0.000327589 0)
(5.38462 0.000417383 0)
(5.38087 0.000527345 0)
(5.37675 0.000662533 0)
(5.37224 0.00082929 0)
(5.36731 0.00103553 0)
(5.36194 0.00129128 0)
(5.3561 0.00160927 0)
(5.34975 0.00200548 0)
(5.34284 0.00250184 0)
(5.33532 0.0031226 0)
(5.32713 0.00390399 0)
(5.31819 0.00490275 0)
(5.30838 0.00617448 0)
(5.29763 0.00779609 0)
(5.2858 0.00987815 0)
(5.27278 0.0125703 0)
(5.2584 0.0160758 0)
(5.24253 0.0206849 0)
(5.22498 0.0267901 0)
(5.20567 0.0349724 0)
(5.18453 0.0459782 0)
(5.16184 0.0609479 0)
(5.13822 0.0810937 0)
(5.1153 0.108145 0)
(5.09568 0.142841 0)
(5.08328 0.185466 0)
(5.08237 0.23275 0)
(5.09522 0.279353 0)
(5.39989 2.31878e-05 0)
(5.39924 6.23546e-05 0)
(5.39782 0.000110671 0)
(5.39597 0.000159462 0)
(5.39369 0.00021814 0)
(5.39103 0.000287276 0)
(5.38801 0.000370834 0)
(5.38463 0.000472477 0)
(5.38088 0.000596944 0)
(5.37675 0.000749957 0)
(5.37224 0.000938692 0)
(5.36732 0.00117209 0)
(5.36195 0.0014615 0)
(5.35612 0.00182128 0)
(5.34977 0.00226949 0)
(5.34287 0.00283083 0)
(5.33536 0.00353266 0)
(5.32718 0.00441566 0)
(5.31827 0.00554358 0)
(5.30851 0.00697855 0)
(5.29781 0.00880633 0)
(5.28607 0.0111494 0)
(5.27317 0.0141725 0)
(5.259 0.0180973 0)
(5.24342 0.0232348 0)
(5.22635 0.0299988 0)
(5.20776 0.0389793 0)
(5.18775 0.0509118 0)
(5.16676 0.0668284 0)
(5.14569 0.0877481 0)
(5.12625 0.114843 0)
(5.11097 0.148276 0)
(5.10299 0.187302 0)
(5.10517 0.228666 0)
(5.1183 0.267737 0)
(5.39989 2.60577e-05 0)
(5.39924 7.00772e-05 0)
(5.39782 0.000124371 0)
(5.39597 0.000179205 0)
(5.39369 0.000245146 0)
(5.39103 0.000322839 0)
(5.38801 0.000416736 0)
(5.38463 0.000530952 0)
(5.38088 0.000670811 0)
(5.37676 0.000842736 0)
(5.37225 0.00105478 0)
(5.36732 0.00131699 0)
(5.36196 0.00164208 0)
(5.35613 0.00204615 0)
(5.34979 0.00254942 0)
(5.3429 0.00317952 0)
(5.33541 0.00396705 0)
(5.32725 0.0049573 0)
(5.31837 0.00622123 0)
(5.30865 0.00782765 0)
(5.29802 0.00987121 0)
(5.28639 0.0124861 0)
(5.27364 0.0158512 0)
(5.2597 0.0202047 0)
(5.24447 0.0258742 0)
(5.22794 0.0332864 0)
(5.21016 0.0430242 0)
(5.19138 0.0557859 0)
(5.1722 0.072461 0)
(5.15367 0.0938319 0)
(5.13753 0.120554 0)
(5.12603 0.152294 0)
(5.12157 0.187693 0)
(5.12583 0.223716 0)
(5.13868 0.256621 0)
(5.39989 2.91038e-05 0)
(5.39924 7.82753e-05 0)
(5.39782 0.000138914 0)
(5.39597 0.000200163 0)
(5.39369 0.000273811 0)
(5.39104 0.000360586 0)
(5.38801 0.000465456 0)
(5.38463 0.000593015 0)
(5.38088 0.000749204 0)
(5.37676 0.000941192 0)
(5.37225 0.00117797 0)
(5.36733 0.00147072 0)
(5.36198 0.00183362 0)
(5.35615 0.0022846 0)
(5.34982 0.00284617 0)
(5.34294 0.00354897 0)
(5.33546 0.00442703 0)
(5.32734 0.00553035 0)
(5.31849 0.00693731 0)
(5.30883 0.00872345 0)
(5.29828 0.0109922 0)
(5.28676 0.013889 0)
(5.27419 0.0176057 0)
(5.26052 0.0223946 0)
(5.24569 0.0285943 0)
(5.22976 0.0366346 0)
(5.21288 0.0470752 0)
(5.19542 0.0605506 0)
(5.17811 0.0777816 0)
(5.16208 0.0992918 0)
(5.14898 0.125283 0)
(5.14072 0.15504 0)
(5.13898 0.186907 0)
(5.14458 0.218199 0)
(5.15681 0.246039 0)
(5.39989 3.23369e-05 0)
(5.39924 8.69783e-05 0)
(5.39782 0.00015435 0)
(5.39597 0.000222409 0)
(5.39369 0.000304238 0)
(5.39104 0.000400652 0)
(5.38801 0.000517166 0)
(5.38463 0.000658882 0)
(5.38089 0.000832397 0)
(5.37677 0.00104567 0)
(5.37226 0.00130866 0)
(5.36734 0.00163379 0)
(5.36199 0.00203676 0)
(5.35617 0.00253741 0)
(5.34985 0.00316066 0)
(5.34299 0.00394029 0)
(5.33553 0.00491388 0)
(5.32743 0.00613627 0)
(5.31863 0.00769336 0)
(5.30903 0.00966746 0)
(5.29857 0.0121706 0)
(5.28719 0.0153585 0)
(5.27483 0.0194347 0)
(5.26146 0.024662 0)
(5.2471 0.0313838 0)
(5.23183 0.0400225 0)
(5.21593 0.0510971 0)
(5.19986 0.0651556 0)
(5.18444 0.0827332 0)
(5.17082 0.104092 0)
(5.16047 0.129063 0)
(5.15493 0.156668 0)
(5.15525 0.185182 0)
(5.16163 0.212333 0)
(5.17307 0.235996 0)
(5.39989 3.57683e-05 0)
(5.39924 9.62172e-05 0)
(5.39782 0.000170735 0)
(5.39597 0.000246023 0)
(5.39369 0.000336533 0)
(5.39104 0.000443177 0)
(5.38802 0.000572046 0)
(5.38463 0.000728785 0)
(5.38089 0.000920679 0)
(5.37677 0.00115652 0)
(5.37227 0.00144731 0)
(5.36736 0.00180675 0)
(5.36201 0.00225216 0)
(5.3562 0.00280539 0)
(5.34989 0.00349387 0)
(5.34304 0.0043546 0)
(5.33561 0.00542891 0)
(5.32754 0.00677649 0)
(5.31879 0.00849085 0)
(5.30927 0.010661 0)
(5.29892 0.0134071 0)
(5.2877 0.0168943 0)
(5.27558 0.0213355 0)
(5.26255 0.0270001 0)
(5.24869 0.0342292 0)
(5.23417 0.0434259 0)
(5.21931 0.0550529 0)
(5.20469 0.0695522 0)
(5.19114 0.0872675 0)
(5.17978 0.108216 0)
(5.17189 0.131942 0)
(5.16857 0.157325 0)
(5.17041 0.18272 0)
(5.17717 0.206276 0)
(5.18775 0.226481 0)
(5.39989 3.94101e-05 0)
(5.39924 0.000106025 0)
(5.39782 0.000188125 0)
(5.39597 0.000271087 0)
(5.39369 0.000370811 0)
(5.39104 0.00048831 0)
(5.38802 0.00063029 0)
(5.38464 0.000802965 0)
(5.38089 0.00101435 0)
(5.37678 0.00127413 0)
(5.37228 0.00159439 0)
(5.36737 0.00199018 0)
(5.36203 0.00248052 0)
(5.35623 0.00308938 0)
(5.34994 0.00384677 0)
(5.34311 0.00479307 0)
(5.3357 0.00597342 0)
(5.32767 0.00745242 0)
(5.31898 0.00933116 0)
(5.30954 0.0117052 0)
(5.29932 0.0147022 0)
(5.28828 0.0184953 0)
(5.27643 0.0233043 0)
(5.26379 0.0294003 0)
(5.2505 0.0371143 0)
(5.23677 0.0468183 0)
(5.22302 0.0589044 0)
(5.20986 0.0736951 0)
(5.19815 0.0913466 0)
(5.1889 0.111662 0)
(5.18313 0.133985 0)
(5.18161 0.157154 0)
(5.18451 0.179691 0)
(5.19136 0.200142 0)
(5.20107 0.217472 0)
(5.39989 4.32751e-05 0)
(5.39924 0.000116437 0)
(5.39782 0.000206583 0)
(5.39597 0.000297691 0)
(5.3937 0.000407191 0)
(5.39104 0.000536211 0)
(5.38802 0.000692101 0)
(5.38464 0.000881681 0)
(5.3809 0.00111374 0)
(5.37679 0.00139889 0)
(5.37229 0.00175038 0)
(5.36739 0.00218467 0)
(5.36206 0.00272257 0)
(5.35627 0.00339023 0)
(5.34999 0.0042204 0)
(5.34318 0.00525684 0)
(5.33581 0.00654872 0)
(5.32783 0.00816541 0)
(5.3192 0.0102155 0)
(5.30986 0.0128009 0)
(5.29978 0.0160558 0)
(5.28895 0.0201596 0)
(5.2774 0.0253358 0)
(5.2652 0.031852 0)
(5.25252 0.0400206 0)
(5.23965 0.0501711 0)
(5.22704 0.0626133 0)
(5.21536 0.0775434 0)
(5.2054 0.0949436 0)
(5.19806 0.114443 0)
(5.19412 0.135267 0)
(5.19401 0.156286 0)
(5.19763 0.176236 0)
(5.20437 0.194014 0)
(5.21324 0.208942 0)
(5.39989 4.73769e-05 0)
(5.39924 0.000127489 0)
(5.39782 0.000226173 0)
(5.39597 0.000325929 0)
(5.3937 0.000445802 0)
(5.39104 0.000587046 0)
(5.38802 0.000757693 0)
(5.38465 0.000965204 0)
(5.38091 0.00121919 0)
(5.3768 0.00153123 0)
(5.37231 0.0019158 0)
(5.36741 0.00239086 0)
(5.36209 0.00297907 0)
(5.35631 0.00370885 0)
(5.35005 0.00461579 0)
(5.34327 0.00574711 0)
(5.33593 0.00715607 0)
(5.328 0.00891673 0)
(5.31945 0.0111449 0)
(5.31023 0.0139484 0)
(5.30031 0.0174671 0)
(5.28972 0.0218842 0)
(5.2785 0.0274233 0)
(5.26678 0.0343426 0)
(5.25476 0.0429273 0)
(5.24279 0.0534542 0)
(5.23137 0.0661427 0)
(5.22113 0.0810626 0)
(5.21283 0.0980433 0)
(5.2072 0.116585 0)
(5.20479 0.135864 0)
(5.20575 0.154839 0)
(5.20983 0.172469 0)
(5.21634 0.187948 0)
(5.2244 0.200862 0)
(5.39989 5.17296e-05 0)
(5.39924 0.000139222 0)
(5.39782 0.000246964 0)
(5.39597 0.000355899 0)
(5.3937 0.00048678 0)
(5.39105 0.000640993 0)
(5.38803 0.000827293 0)
(5.38465 0.00105382 0)
(5.38092 0.00133105 0)
(5.37681 0.00167159 0)
(5.37232 0.0020912 0)
(5.36743 0.0026094 0)
(5.36212 0.00325078 0)
(5.35636 0.00404615 0)
(5.35012 0.005034 0)
(5.34336 0.00626503 0)
(5.33607 0.00779671 0)
(5.3282 0.00970753 0)
(5.31974 0.0121201 0)
(5.31065 0.0151479 0)
(5.30092 0.0189345 0)
(5.29059 0.023665 0)
(5.27975 0.0295584 0)
(5.26854 0.0368574 0)
(5.25724 0.0458118 0)
(5.24621 0.0566372 0)
(5.23597 0.0694582 0)
(5.22713 0.0842249 0)
(5.22037 0.100641 0)
(5.21625 0.118125 0)
(5.21509 0.135857 0)
(5.21686 0.152918 0)
(5.22118 0.168484 0)
(5.22737 0.181987 0)
(5.23468 0.193203 0)
(5.39989 5.63486e-05 0)
(5.39925 0.000151677 0)
(5.39782 0.000269028 0)
(5.39598 0.000387707 0)
(5.3937 0.000530266 0)
(5.39105 0.000698239 0)
(5.38803 0.000901142 0)
(5.38466 0.00114783 0)
(5.38092 0.00144969 0)
(5.37682 0.00182043 0)
(5.37234 0.00227713 0)
(5.36746 0.00284096 0)
(5.36216 0.00353853 0)
(5.35641 0.00440308 0)
(5.35019 0.0054761 0)
(5.34348 0.00681176 0)
(5.33624 0.0084718 0)
(5.32844 0.0105388 0)
(5.32008 0.0131416 0)
(5.31113 0.0163987 0)
(5.30161 0.0204559 0)
(5.29157 0.0254965 0)
(5.28114 0.031731 0)
(5.2705 0.0393797 0)
(5.25994 0.04865 0)
(5.24988 0.0596897 0)
(5.24082 0.072529 0)
(5.23333 0.0870106 0)
(5.22797 0.102744 0)
(5.22514 0.119105 0)
(5.22499 0.135323 0)
(5.22734 0.150616 0)
(5.23175 0.164354 0)
(5.23758 0.176158 0)
(5.24419 0.185934 0)
(5.39989 6.12497e-05 0)
(5.39925 0.000164898 0)
(5.39782 0.000292443 0)
(5.39598 0.000421465 0)
(5.3937 0.000576412 0)
(5.39105 0.000758982 0)
(5.38804 0.000979492 0)
(5.38466 0.00124756 0)
(5.38093 0.00157552 0)
(5.37684 0.00197823 0)
(5.37236 0.00247419 0)
(5.36749 0.00308626 0)
(5.3622 0.00384315 0)
(5.35648 0.0047806 0)
(5.35029 0.00594316 0)
(5.34361 0.0073884 0)
(5.33642 0.00918239 0)
(5.3287 0.0114113 0)
(5.32046 0.0142094 0)
(5.31168 0.0176997 0)
(5.30238 0.0220278 0)
(5.29267 0.027372 0)
(5.28269 0.0339292 0)
(5.27265 0.0418914 0)
(5.26288 0.051417 0)
(5.25379 0.0625826 0)
(5.24588 0.0753289 0)
(5.23966 0.0894077 0)
(5.23556 0.104364 0)
(5.23383 0.119573 0)
(5.23447 0.134336 0)
(5.23722 0.148012 0)
(5.2416 0.160137 0)
(5.24705 0.170479 0)
(5.25303 0.17903 0)
(5.39989 6.645e-05 0)
(5.39925 0.000178933 0)
(5.39782 0.00031729 0)
(5.39598 0.00045729 0)
(5.3937 0.000625378 0)
(5.39105 0.000823431 0)
(5.38804 0.00106261 0)
(5.38467 0.00135333 0)
(5.38095 0.00170895 0)
(5.37686 0.00214552 0)
(5.37239 0.00268299 0)
(5.36753 0.00334603 0)
(5.36225 0.00416548 0)
(5.35655 0.00517966 0)
(5.35039 0.00643621 0)
(5.34376 0.007996 0)
(5.33664 0.00992944 0)
(5.329 0.0123256 0)
(5.32089 0.0153231 0)
(5.31229 0.019049 0)
(5.30326 0.0236459 0)
(5.2939 0.0292833 0)
(5.2844 0.0361396 0)
(5.27499 0.0443726 0)
(5.26603 0.0540874 0)
(5.25793 0.065289 0)
(5.25113 0.0778367 0)
(5.24608 0.0914119 0)
(5.24309 0.105526 0)
(5.24227 0.11958 0)
(5.24353 0.132964 0)
(5.24652 0.145173 0)
(5.2508 0.15588 0)
(5.25586 0.164961 0)
(5.26127 0.172464 0)
(5.39989 7.19673e-05 0)
(5.39925 0.000193831 0)
(5.39782 0.000343656 0)
(5.39598 0.000495307 0)
(5.39371 0.000677333 0)
(5.39106 0.000891807 0)
(5.38805 0.00115078 0)
(5.38468 0.00146551 0)
(5.38096 0.00185042 0)
(5.37688 0.00232281 0)
(5.37242 0.00290418 0)
(5.36757 0.00362101 0)
(5.36231 0.0045064 0)
(5.35663 0.00560123 0)
(5.35051 0.00695628 0)
(5.34393 0.00863554 0)
(5.33688 0.0107137 0)
(5.32935 0.0132819 0)
(5.32138 0.0164819 0)
(5.31299 0.0204439 0)
(5.30424 0.0253046 0)
(5.29527 0.0312207 0)
(5.28628 0.0383471 0)
(5.27754 0.0468029 0)
(5.2694 0.0566366 0)
(5.26226 0.0677849 0)
(5.25653 0.0800375 0)
(5.25255 0.0930264 0)
(5.25052 0.106256 0)
(5.25045 0.119174 0)
(5.25215 0.13127 0)
(5.25528 0.142156 0)
(5.2594 0.151619 0)
(5.26408 0.15961 0)
(5.26897 0.166212 0)
(5.39989 7.78205e-05 0)
(5.39925 0.000209644 0)
(5.39782 0.00037163 0)
(5.39598 0.000535648 0)
(5.39371 0.000732454 0)
(5.39106 0.000964342 0)
(5.38805 0.00124429 0)
(5.38469 0.00158446 0)
(5.38098 0.00200037 0)
(5.3769 0.00251065 0)
(5.37245 0.0031384 0)
(5.36762 0.00391198 0)
(5.36238 0.00486677 0)
(5.35673 0.00604627 0)
(5.35065 0.00750433 0)
(5.34412 0.00930787 0)
(5.33716 0.0115357 0)
(5.32974 0.0142801 0)
(5.32193 0.017684 0)
(5.31377 0.0218809 0)
(5.30533 0.0269972 0)
(5.29678 0.033173 0)
(5.28833 0.0405355 0)
(5.28028 0.0491608 0)
(5.27297 0.0590411 0)
(5.26678 0.0700499 0)
(5.26204 0.0819218 0)
(5.25901 0.0942607 0)
(5.2578 0.106586 0)
(5.25833 0.118407 0)
(5.26036 0.129309 0)
(5.26353 0.13901 0)
(5.26745 0.14738 0)
(5.27177 0.154427 0)
(5.27619 0.160254 0)
(5.39989 8.40295e-05 0)
(5.39925 0.00022643 0)
(5.39782 0.00040131 0)
(5.39598 0.000578452 0)
(5.39371 0.000790931 0)
(5.39107 0.00104128 0)
(5.38806 0.00134346 0)
(5.3847 0.00171057 0)
(5.38099 0.00215929 0)
(5.37692 0.00270963 0)
(5.37249 0.00338633 0)
(5.36767 0.00421973 0)
(5.36246 0.00524748 0)
(5.35684 0.00651571 0)
(5.35081 0.00808126 0)
(5.34435 0.0100137 0)
(5.33747 0.0123958 0)
(5.33018 0.0153196 0)
(5.32256 0.0189276 0)
(5.31465 0.0233555 0)
(5.30654 0.0287157 0)
(5.29843 0.035128 0)
(5.29056 0.0426873 0)
(5.28321 0.0514252 0)
(5.27672 0.061279 0)
(5.27143 0.0720677 0)
(5.26761 0.0834862 0)
(5.26543 0.0951298 0)
(5.26491 0.10655 0)
(5.26591 0.117326 0)
(5.26815 0.127132 0)
(5.2713 0.135773 0)
(5.27501 0.143186 0)
(5.27898 0.149413 0)
(5.28298 0.154568 0)
(5.39989 9.06153e-05 0)
(5.39925 0.000244247 0)
(5.39782 0.000432796 0)
(5.39598 0.000623867 0)
(5.39372 0.000852962 0)
(5.39107 0.00112288 0)
(5.38807 0.00144861 0)
(5.38472 0.00184424 0)
(5.38101 0.00232767 0)
(5.37695 0.00292034 0)
(5.37253 0.00364868 0)
(5.36773 0.00454504 0)
(5.36255 0.00564939 0)
(5.35697 0.00701042 0)
(5.35098 0.00868787 0)
(5.3446 0.0107536 0)
(5.33783 0.013294 0)
(5.33068 0.0163995 0)
(5.32325 0.0202103 0)
(5.31562 0.0248622 0)
(5.30787 0.030451 0)
(5.30024 0.0370717 0)
(5.29296 0.0447846 0)
(5.28632 0.0535754 0)
(5.28064 0.0633313 0)
(5.2762 0.0738268 0)
(5.27322 0.0847329 0)
(5.27178 0.0956532 0)
(5.27182 0.106184 0)
(5.27317 0.115975 0)
(5.27555 0.124782 0)
(5.27862 0.132479 0)
(5.28211 0.139051 0)
(5.28575 0.144566 0)
(5.28937 0.149136 0)
(5.39989 9.75999e-05 0)
(5.39925 0.000263159 0)
(5.39782 0.000466196 0)
(5.39599 0.000672048 0)
(5.39372 0.000918754 0)
(5.39108 0.00120942 0)
(5.38808 0.00156009 0)
(5.38473 0.0019859 0)
(5.38104 0.00250603 0)
(5.37699 0.00314338 0)
(5.37258 0.00392615 0)
(5.3678 0.00488871 0)
(5.36265 0.00607334 0)
(5.35711 0.00753123 0)
(5.35119 0.00932483 0)
(5.34488 0.0115278 0)
(5.33823 0.0142296 0)
(5.33123 0.0175183 0)
(5.32402 0.0215262 0)
(5.31669 0.0263938 0)
(5.30933 0.0321923 0)
(5.30219 0.0389895 0)
(5.29552 0.0468088 0)
(5.28959 0.0555921 0)
(5.28469 0.0651819 0)
(5.28105 0.0753201 0)
(5.27882 0.0856687 0)
(5.27801 0.0958539 0)
(5.27852 0.105523 0)
(5.28012 0.114395 0)
(5.28256 0.122295 0)
(5.28553 0.129153 0)
(5.28879 0.134988 0)
(5.29213 0.13988 0)
(5.2954 0.143942 0)
(5.39989 0.000105007 0)
(5.39925 0.000283231 0)
(5.39783 0.000501622 0)
(5.39599 0.000723159 0)
(5.39373 0.000988528 0)
(5.39109 0.00130117 0)
(5.38809 0.00167825 0)
(5.38475 0.00213599 0)
(5.38106 0.00269489 0)
(5.37703 0.00337938 0)
(5.37263 0.00421946 0)
(5.36788 0.00525153 0)
(5.36276 0.00652016 0)
(5.35727 0.0080789 0)
(5.35141 0.00999265 0)
(5.3452 0.0123364 0)
(5.33868 0.0152019 0)
(5.33186 0.0186739 0)
(5.32488 0.0228719 0)
(5.31786 0.0279428 0)
(5.31092 0.0339277 0)
(5.3043 0.0408656 0)
(5.29824 0.0487419 0)
(5.29301 0.0574573 0)
(5.28886 0.066818 0)
(5.28596 0.0765451 0)
(5.28439 0.0863051 0)
(5.28411 0.0957567 0)
(5.28498 0.104602 0)
(5.28676 0.112624 0)
(5.2892 0.119705 0)
(5.29205 0.125818 0)
(5.29508 0.131005 0)
(5.29814 0.135354 0)
(5.3011 0.138969 0)
(5.39989 0.00011286 0)
(5.39925 0.000304534 0)
(5.39783 0.000539193 0)
(5.39599 0.000777371 0)
(5.39373 0.00106251 0)
(5.3911 0.00139844 0)
(5.38811 0.00180346 0)
(5.38477 0.00229497 0)
(5.38109 0.0028948 0)
(5.37707 0.00362899 0)
(5.3727 0.00452933 0)
(5.36797 0.00563427 0)
(5.36289 0.0069906 0)
(5.35745 0.00865407 0)
(5.35167 0.0106916 0)
(5.34557 0.0131791 0)
(5.33918 0.016209 0)
(5.33257 0.019863 0)
(5.32583 0.0242458 0)
(5.31915 0.0295009 0)
(5.31265 0.0356446 0)
(5.30655 0.0426839 0)
(5.30112 0.0505663 0)
(5.29657 0.0591557 0)
(5.29312 0.0682307 0)
(5.29089 0.0775037 0)
(5.28989 0.0866568 0)
(5.29005 0.0953882 0)
(5.2912 0.103454 0)
(5.29309 0.110695 0)
(5.2955 0.117039 0)
(5.2982 0.122491 0)
(5.30102 0.127108 0)
(5.30382 0.13098 0)
(5.3065 0.134205 0)
(5.39989 0.000121186 0)
(5.39925 0.000327143 0)
(5.39783 0.000579033 0)
(5.396 0.000834866 0)
(5.39374 0.00114095 0)
(5.39111 0.00150153 0)
(5.38812 0.00193612 0)
(5.3848 0.0024633 0)
(5.38113 0.00310633 0)
(5.37712 0.00389284 0)
(5.37277 0.00485647 0)
(5.36808 0.00603767 0)
(5.36304 0.00748536 0)
(5.35766 0.00925723 0)
(5.35196 0.0114219 0)
(5.34597 0.0140553 0)
(5.33975 0.0172491 0)
(5.33335 0.021081 0)
(5.32688 0.0256397 0)
(5.32056 0.0310582 0)
(5.31451 0.0373298 0)
(5.30896 0.0444287 0)
(5.30413 0.0522658 0)
(5.30024 0.0606743 0)
(5.29744 0.0694149 0)
(5.29581 0.0782017 0)
(5.29531 0.0867414 0)
(5.29583 0.0947753 0)
(5.29717 0.102111 0)
(5.29913 0.108637 0)
(5.30147 0.114319 0)
(5.30403 0.119186 0)
(5.30664 0.123302 0)
(5.30919 0.126754 0)
(5.31162 0.129636 0)
(5.39989 0.00013001 0)
(5.39925 0.000351137 0)
(5.39783 0.000621273 0)
(5.396 0.000895835 0)
(5.39374 0.0012241 0)
(5.39112 0.00161077 0)
(5.38814 0.00207663 0)
(5.38482 0.00264148 0)
(5.38117 0.00333004 0)
(5.37718 0.00417159 0)
(5.37285 0.00520159 0)
(5.36819 0.00646244 0)
(5.3632 0.00800503 0)
(5.35789 0.00988872 0)
(5.35229 0.0121832 0)
(5.34643 0.0149638 0)
(5.34037 0.0183194 0)
(5.33421 0.022323 0)
(5.32804 0.0270448 0)
(5.3221 0.0326038 0)
(5.31651 0.0389698 0)
(5.3115 0.0460846 0)
(5.30728 0.053826 0)
(5.30401 0.0620036 0)
(5.30181 0.0703692 0)
(5.3007 0.0786484 0)
(5.30062 0.0865786 0)
(5.30142 0.0939446 0)
(5.3029 0.100601 0)
(5.30488 0.106477 0)
(5.30714 0.111567 0)
(5.30954 0.115914 0)
(5.31195 0.119587 0)
(5.31429 0.122671 0)
(5.31649 0.12525 0)
(5.39989 0.000139362 0)
(5.39925 0.000376599 0)
(5.39783 0.000666051 0)
(5.396 0.000960478 0)
(5.39375 0.00131221 0)
(5.39113 0.00172651 0)
(5.38816 0.0022254 0)
(5.38485 0.00283 0)
(5.38121 0.00356653 0)
(5.37724 0.00446589 0)
(5.37295 0.00556536 0)
(5.36832 0.00690921 0)
(5.36339 0.00855009 0)
(5.35816 0.0105487 0)
(5.35265 0.012975 0)
(5.34693 0.0159031 0)
(5.34107 0.0194168 0)
(5.33516 0.0235832 0)
(5.3293 0.028453 0)
(5.32376 0.0341259 0)
(5.31865 0.0405504 0)
(5.31418 0.047637 0)
(5.31053 0.0552347 0)
(5.30785 0.0631369 0)
(5.30619 0.0710959 0)
(5.30554 0.0788559 0)
(5.3058 0.0861889 0)
(5.30682 0.0929221 0)
(5.30839 0.098951 0)
(5.31035 0.104238 0)
(5.31252 0.108798 0)
(5.31477 0.112684 0)
(5.31699 0.115967 0)
(5.31913 0.118725 0)
(5.32113 0.121036 0)
(5.39989 0.00014927 0)
(5.39925 0.000403616 0)
(5.39784 0.000713509 0)
(5.39601 0.001029 0)
(5.39376 0.00140558 0)
(5.39115 0.00184908 0)
(5.38818 0.00238286 0)
(5.38489 0.00302939 0)
(5.38126 0.00381636 0)
(5.37732 0.00477636 0)
(5.37305 0.00594842 0)
(5.36847 0.00737855 0)
(5.3636 0.00912089 0)
(5.35845 0.0112369 0)
(5.35306 0.0137964 0)
(5.3475 0.0168708 0)
(5.34183 0.0205374 0)
(5.33619 0.0248553 0)
(5.33068 0.0298549 0)
(5.32554 0.0356125 0)
(5.32091 0.042058 0)
(5.31697 0.0490725 0)
(5.31388 0.0564818 0)
(5.31174 0.0640709 0)
(5.31056 0.0716003 0)
(5.31031 0.0788387 0)
(5.31084 0.0855938 0)
(5.31202 0.0917323 0)
(5.31365 0.0971848 0)
(5.31556 0.101939 0)
(5.31763 0.106026 0)
(5.31972 0.109503 0)
(5.32177 0.11244 0)
(5.32372 0.114911 0)
(5.32554 0.116985 0)
(5.39989 0.000159765 0)
(5.39925 0.000432283 0)
(5.39784 0.000763797 0)
(5.39602 0.00110163 0)
(5.39377 0.00150447 0)
(5.39116 0.00197885 0)
(5.38821 0.00254946 0)
(5.38493 0.00324014 0)
(5.38132 0.00408013 0)
(5.3774 0.00510364 0)
(5.37317 0.00635137 0)
(5.36864 0.00787092 0)
(5.36383 0.00971758 0)
(5.35878 0.0119532 0)
(5.35352 0.014646 0)
(5.34812 0.0178643 0)
(5.34268 0.0216764 0)
(5.33732 0.0261324 0)
(5.33216 0.0312416 0)
(5.32743 0.0370498 0)
(5.32329 0.0434782 0)
(5.31987 0.0503786 0)
(5.3173 0.0575595 0)
(5.31565 0.0648049 0)
(5.3149 0.0718903 0)
(5.31497 0.0786124 0)
(5.31573 0.0848144 0)
(5.31701 0.0903983 0)
(5.31866 0.0953236 0)
(5.32052 0.099598 0)
(5.32247 0.103262 0)
(5.32442 0.106376 0)
(5.32631 0.109007 0)
(5.32809 0.111223 0)
(5.32974 0.113086 0)
(5.39989 0.000170879 0)
(5.39925 0.000462696 0)
(5.39784 0.000817072 0)
(5.39602 0.00117858 0)
(5.39378 0.0016092 0)
(5.39118 0.00211621 0)
(5.38824 0.00272565 0)
(5.38497 0.0034628 0)
(5.38139 0.0043584 0)
(5.37749 0.00544829 0)
(5.3733 0.00677473 0)
(5.36883 0.00838664 0)
(5.3641 0.0103401 0)
(5.35915 0.0126965 0)
(5.35403 0.0155221 0)
(5.34881 0.01888 0)
(5.34361 0.0228285 0)
(5.33855 0.0274063 0)
(5.33375 0.0326039 0)
(5.32942 0.0384246 0)
(5.32576 0.0447973 0)
(5.32284 0.0515438 0)
(5.32077 0.0584621 0)
(5.31956 0.0653408 0)
(5.31918 0.0719757 0)
(5.31952 0.0781936 0)
(5.32045 0.0838712 0)
(5.3218 0.0889411 0)
(5.32344 0.0933863 0)
(5.32523 0.0972288 0)
(5.32707 0.100516 0)
(5.32888 0.103307 0)
(5.33062 0.105667 0)
(5.33224 0.107656 0)
(5.33374 0.109333 0)
(5.39989 0.000182643 0)
(5.39925 0.000494958 0)
(5.39785 0.000873496 0)
(5.39603 0.0012601 0)
(5.3938 0.00172006 0)
(5.39121 0.00226152 0)
(5.38827 0.00291188 0)
(5.38502 0.00369786 0)
(5.38146 0.00465174 0)
(5.3776 0.00581086 0)
(5.37345 0.00721892 0)
(5.36904 0.0089259 0)
(5.3644 0.0109881 0)
(5.35956 0.013466 0)
(5.35459 0.0164222 0)
(5.34957 0.0199139 0)
(5.34462 0.0239876 0)
(5.33987 0.0286681 0)
(5.33546 0.0339292 0)
(5.33153 0.0397336 0)
(5.32833 0.0460089 0)
(5.32589 0.0525614 0)
(5.32426 0.0591875 0)
(5.32345 0.0656835 0)
(5.32338 0.0718684 0)
(5.32394 0.0775995 0)
(5.325 0.0827839 0)
(5.32639 0.08738 0)
(5.328 0.0913893 0)
(5.32971 0.0948438 0)
(5.33143 0.097794 0)
(5.33311 0.100298 0)
(5.33471 0.102417 0)
(5.3362 0.104206 0)
(5.33756 0.105715 0)
(5.39989 0.000195094 0)
(5.39926 0.000529178 0)
(5.39785 0.000933237 0)