/*--------------------------------*- C++ -*----------------------------------*\
| =========                 |                                                 |
| \\      /  F ield         | OpenFOAM: The Open Source CFD Toolbox           |
|  \\    /   O peration     | Version:  v1912                                 |
|   \\  /    A nd           | Website:  www.openfoam.com                      |
|    \\/     M anipulation  |                                                 |
\*---------------------------------------------------------------------------*/
FoamFile
{
    version     2.0;
    format      ascii;
    class       volVectorField;
    location    "5000";
    object      wallShearStress;
}
// * * * * * * * * * * * * * * * * * * * * * * * * * * * * * * * * * * * * * //

dimensions      [0 2 -2 0 0 0 0];


internalField   uniform (0 0 0);

boundaryField
{
    lowerWall
    {
        type            calculated;
        value           nonuniform List<vector> 
283
(
(-3.9394 -0.856036 0)
(-2.3874 -0.363804 0)
(-1.67127 -0.12605 0)
(-1.27629 -0.0504694 0)
(-1.08026 -0.0250573 0)
(-0.95684 -0.0167272 0)
(-0.866417 -0.0124383 0)
(-0.796919 -0.00962774 0)
(-0.741432 -0.00772927 0)
(-0.695719 -0.00638993 0)
(-0.657177 -0.00538075 0)
(-0.624125 -0.00460522 0)
(-0.595349 -0.00399677 0)
(-0.569984 -0.00350522 0)
(-0.54741 -0.0031023 0)
(-0.527141 -0.00276931 0)
(-0.508801 -0.00248926 0)
(-0.492097 -0.00225113 0)
(-0.476796 -0.00204671 0)
(-0.46271 -0.00186968 0)
(-0.449683 -0.00171565 0)
(-0.437583 -0.00158046 0)
(-0.426305 -0.00146092 0)
(-0.415756 -0.00135467 0)
(-0.40586 -0.00125979 0)
(-0.396551 -0.00117478 0)
(-0.387771 -0.0010982 0)
(-0.37947 -0.00102892 0)
(-0.371605 -0.000966043 0)
(-0.364138 -0.000908751 0)
(-0.357036 -0.000856371 0)
(-0.350268 -0.000808383 0)
(-0.343809 -0.000764325 0)
(-0.337635 -0.00072374 0)
(-0.331725 -0.000686253 0)
(-0.32606 -0.000651551 0)
(-0.320623 -0.000619362 0)
(-0.315398 -0.000589442 0)
(-0.310372 -0.000561582 0)
(-0.305531 -0.000535607 0)
(-0.300865 -0.000511341 0)
(-0.296362 -0.000488634 0)
(-0.292013 -0.00046735 0)
(-0.287809 -0.000447367 0)
(-0.283741 -0.000428578 0)
(-0.279803 -0.000410891 0)
(-0.275987 -0.000394226 0)
(-0.272286 -0.000378511 0)
(-0.268696 -0.000363668 0)
(-0.265209 -0.00034963 0)
(-0.261821 -0.000336339 0)
(-0.258528 -0.000323746 0)
(-0.255324 -0.000311801 0)
(-0.252205 -0.000300459 0)
(-0.249169 -0.000289679 0)
(-0.24621 -0.000279427 0)
(-0.243326 -0.000269672 0)
(-0.240513 -0.00026038 0)
(-0.237768 -0.000251522 0)
(-0.235088 -0.000243072 0)
(-0.232472 -0.000235003 0)
(-0.229915 -0.000227292 0)
(-0.227416 -0.000219919 0)
(-0.224973 -0.000212865 0)
(-0.222583 -0.000206114 0)
(-0.220245 -0.000199649 0)
(-0.217956 -0.000193453 0)
(-0.215715 -0.000187512 0)
(-0.21352 -0.000181811 0)
(-0.211369 -0.000176338 0)
(-0.209261 -0.000171082 0)
(-0.207195 -0.000166031 0)
(-0.205168 -0.000161173 0)
(-0.20318 -0.000156501 0)
(-0.201229 -0.000152004 0)
(-0.199315 -0.000147675 0)
(-0.197435 -0.000143508 0)
(-0.195589 -0.000139492 0)
(-0.193776 -0.00013562 0)
(-0.191995 -0.000131887 0)
(-0.190245 -0.000128285 0)
(-0.188525 -0.000124808 0)
(-0.186834 -0.000121452 0)
(-0.185171 -0.00011821 0)
(-0.183535 -0.000115077 0)
(-0.181926 -0.000112051 0)
(-0.180343 -0.000109125 0)
(-0.178786 -0.000106295 0)
(-0.177252 -0.000103558 0)
(-0.175743 -0.00010091 0)
(-0.174256 -9.83459e-05 0)
(-0.172793 -9.58636e-05 0)
(-0.171351 -9.34593e-05 0)
(-0.169931 -9.11297e-05 0)
(-0.168531 -8.88718e-05 0)
(-0.167152 -8.66832e-05 0)
(-0.165793 -8.45616e-05 0)
(-0.164454 -8.25044e-05 0)
(-0.163133 -8.0509e-05 0)
(-0.16183 -7.85728e-05 0)
(-0.160546 -7.66937e-05 0)
(-0.159279 -7.48695e-05 0)
(-0.15803 -7.30984e-05 0)
(-0.156797 -7.13783e-05 0)
(-0.15558 -6.97074e-05 0)
(-0.15438 -6.80839e-05 0)
(-0.153196 -6.65059e-05 0)
(-0.152026 -6.49721e-05 0)
(-0.150872 -6.34814e-05 0)
(-0.149732 -6.20321e-05 0)
(-0.148607 -6.06227e-05 0)
(-0.147496 -5.92518e-05 0)
(-0.146399 -5.79179e-05 0)
(-0.145315 -5.662e-05 0)
(-0.144244 -5.53567e-05 0)
(-0.143186 -5.4127e-05 0)
(-0.142141 -5.29297e-05 0)
(-0.141109 -5.17639e-05 0)
(-0.140088 -5.06285e-05 0)
(-0.13908 -4.95226e-05 0)
(-0.138083 -4.84455e-05 0)
(-0.137098 -4.7396e-05 0)
(-0.136124 -4.63733e-05 0)
(-0.135161 -4.53767e-05 0)
(-0.134208 -4.44052e-05 0)
(-0.133267 -4.34581e-05 0)
(-0.132336 -4.25346e-05 0)
(-0.131415 -4.1634e-05 0)
(-0.130504 -4.07556e-05 0)
(-0.129604 -3.98987e-05 0)
(-0.128712 -3.90628e-05 0)
(-0.127831 -3.82473e-05 0)
(-0.126959 -3.74517e-05 0)
(-0.126096 -3.66753e-05 0)
(-0.125242 -3.59175e-05 0)
(-0.124397 -3.51777e-05 0)
(-0.123561 -3.44556e-05 0)
(-0.122733 -3.37505e-05 0)
(-0.121914 -3.3062e-05 0)
(-0.121103 -3.23897e-05 0)
(-0.120301 -3.1733e-05 0)
(-0.119506 -3.10916e-05 0)
(-0.118719 -3.04648e-05 0)
(-0.11794 -2.98524e-05 0)
(-0.117169 -2.92542e-05 0)
(-0.116406 -2.86698e-05 0)
(-0.11565 -2.80986e-05 0)
(-0.114901 -2.75405e-05 0)
(-0.114159 -2.69949e-05 0)
(-0.113425 -2.64615e-05 0)
(-0.112697 -2.59401e-05 0)
(-0.111976 -2.54302e-05 0)
(-0.111262 -2.49316e-05 0)
(-0.110555 -2.44439e-05 0)
(-0.109855 -2.39669e-05 0)
(-0.109161 -2.35005e-05 0)
(-0.108473 -2.30443e-05 0)
(-0.107791 -2.25982e-05 0)
(-0.107116 -2.21618e-05 0)
(-0.106447 -2.17348e-05 0)
(-0.105784 -2.1317e-05 0)
(-0.105127 -2.09082e-05 0)
(-0.104476 -2.05078e-05 0)
(-0.103831 -2.0116e-05 0)
(-0.103191 -1.97326e-05 0)
(-0.102557 -1.93573e-05 0)
(-0.101928 -1.899e-05 0)
(-0.101305 -1.86305e-05 0)
(-0.100688 -1.82786e-05 0)
(-0.100076 -1.79341e-05 0)
(-0.0994686 -1.75967e-05 0)
(-0.0988668 -1.72662e-05 0)
(-0.0982702 -1.69423e-05 0)
(-0.0976786 -1.66252e-05 0)
(-0.0970921 -1.63148e-05 0)
(-0.0965105 -1.60107e-05 0)
(-0.0959338 -1.57129e-05 0)
(-0.0953619 -1.54212e-05 0)
(-0.0947947 -1.51355e-05 0)
(-0.0942323 -1.48556e-05 0)
(-0.0936744 -1.45813e-05 0)
(-0.0931212 -1.43124e-05 0)
(-0.0925725 -1.40487e-05 0)
(-0.0920283 -1.37903e-05 0)
(-0.0914886 -1.35373e-05 0)
(-0.0909532 -1.32893e-05 0)
(-0.0904221 -1.30464e-05 0)
(-0.0898952 -1.28083e-05 0)
(-0.0893726 -1.2575e-05 0)
(-0.0888542 -1.23463e-05 0)
(-0.0883399 -1.2122e-05 0)
(-0.0878296 -1.1902e-05 0)
(-0.0873234 -1.1686e-05 0)
(-0.0868212 -1.14743e-05 0)
(-0.0863229 -1.12669e-05 0)
(-0.0858286 -1.10636e-05 0)
(-0.085338 -1.08643e-05 0)
(-0.0848513 -1.0669e-05 0)
(-0.0843684 -1.04774e-05 0)
(-0.0838892 -1.02896e-05 0)
(-0.0834136 -1.01054e-05 0)
(-0.0829417 -9.92448e-06 0)
(-0.0824734 -9.7468e-06 0)
(-0.0820087 -9.57254e-06 0)
(-0.0815475 -9.40164e-06 0)
(-0.0810899 -9.23407e-06 0)
(-0.0806357 -9.0698e-06 0)
(-0.0801849 -8.90871e-06 0)
(-0.0797375 -8.75074e-06 0)
(-0.0792935 -8.59578e-06 0)
(-0.0788528 -8.44376e-06 0)
(-0.0784153 -8.29445e-06 0)
(-0.0779811 -8.14768e-06 0)
(-0.0775502 -8.00358e-06 0)
(-0.0771224 -7.86223e-06 0)
(-0.0766978 -7.7236e-06 0)
(-0.0762764 -7.5876e-06 0)
(-0.075858 -7.45419e-06 0)
(-0.0754427 -7.32332e-06 0)
(-0.0750304 -7.19495e-06 0)
(-0.0746212 -7.069e-06 0)
(-0.0742149 -6.94535e-06 0)
(-0.0738115 -6.82373e-06 0)
(-0.0734111 -6.70408e-06 0)
(-0.0730136 -6.58669e-06 0)
(-0.072619 -6.47154e-06 0)
(-0.0722273 -6.35856e-06 0)
(-0.0718383 -6.24771e-06 0)
(-0.0714522 -6.13893e-06 0)
(-0.0710688 -6.03218e-06 0)
(-0.0706881 -5.92741e-06 0)
(-0.0703102 -5.82459e-06 0)
(-0.0699349 -5.72353e-06 0)
(-0.0695624 -5.62401e-06 0)
(-0.0691924 -5.52617e-06 0)
(-0.0688252 -5.43014e-06 0)
(-0.0684605 -5.33596e-06 0)
(-0.0680984 -5.24354e-06 0)
(-0.0677389 -5.15281e-06 0)
(-0.0673819 -5.06378e-06 0)
(-0.0670274 -4.97639e-06 0)
(-0.0666754 -4.8906e-06 0)
(-0.0663258 -4.80633e-06 0)
(-0.0659787 -4.72343e-06 0)
(-0.0656341 -4.6417e-06 0)
(-0.0652918 -4.5614e-06 0)
(-0.064952 -4.4826e-06 0)
(-0.0646146 -4.40529e-06 0)
(-0.0642795 -4.32941e-06 0)
(-0.0639468 -4.25493e-06 0)
(-0.0636163 -4.1818e-06 0)
(-0.0632882 -4.11003e-06 0)
(-0.0629623 -4.03956e-06 0)
(-0.0626387 -3.97036e-06 0)
(-0.0623173 -3.90209e-06 0)
(-0.0619981 -3.83474e-06 0)
(-0.0616812 -3.76862e-06 0)
(-0.0613665 -3.70374e-06 0)
(-0.061054 -3.64006e-06 0)
(-0.0607436 -3.57758e-06 0)
(-0.0604354 -3.51623e-06 0)
(-0.0601293 -3.456e-06 0)
(-0.0598254 -3.39686e-06 0)
(-0.0595235 -3.3388e-06 0)
(-0.0592236 -3.28177e-06 0)
(-0.0589259 -3.22545e-06 0)
(-0.0586302 -3.16985e-06 0)
(-0.0583365 -3.11524e-06 0)
(-0.0580449 -3.06168e-06 0)
(-0.0577554 -3.00911e-06 0)
(-0.0574678 -2.95752e-06 0)
(-0.0571822 -2.90686e-06 0)
(-0.0568986 -2.85714e-06 0)
(-0.0566169 -2.8083e-06 0)
(-0.0563371 -2.76036e-06 0)
(-0.0560593 -2.71326e-06 0)
(-0.0557833 -2.66674e-06 0)
(-0.0555093 -2.6207e-06 0)
(-0.0552372 -2.57555e-06 0)
(-0.054967 -2.53122e-06 0)
(-0.0546986 -2.48772e-06 0)
(-0.0544321 -2.44499e-06 0)
(-0.0541675 -2.40304e-06 0)
)
;
    }
    lowerSymmetry
    {
        type            calculated;
        value           uniform (0 0 0);
    }
    upperSymmetry
    {
        type            calculated;
        value           uniform (0 0 0);
    }
    inlet
    {
        type            calculated;
        value           uniform (0 0 0);
    }
    outlet
    {
        type            calculated;
        value           nonuniform 0();
    }
    defaultFaces
    {
        type            empty;
    }
    procBoundary0to1
    {
        type            processor;
        value           uniform (0 0 0);
    }
}


// ************************************************************************* //
