/*--------------------------------*- C++ -*----------------------------------*\
| =========                 |                                                 |
| \\      /  F ield         | OpenFOAM: The Open Source CFD Toolbox           |
|  \\    /   O peration     | Version:  v1912                                 |
|   \\  /    A nd           | Website:  www.openfoam.com                      |
|    \\/     M anipulation  |                                                 |
\*---------------------------------------------------------------------------*/
FoamFile
{
    version     2.0;
    format      ascii;
    class       volScalarField;
    location    "7000";
    object      alphat;
}
// * * * * * * * * * * * * * * * * * * * * * * * * * * * * * * * * * * * * * //

dimensions      [1 -1 -1 0 0 0 0];


internalField   nonuniform List<scalar> 
18230
(
1.292545841075757e-08
3.214287696912679e-10
1.037379706606773e-07
8.044862353250591e-07
2.801405726805053e-11
1.840662696335018e-08
2.21964434967467e-09
1.244887833616377e-06
1.488960188034851e-06
2.023153228637762e-10
1.497552473995347e-08
5.623706091260489e-08
3.48879137605705e-11
1.272779137747417e-07
1.725356585613365e-06
1.866032483379477e-06
3.550901363603067e-10
2.010479100926122e-07
2.10087621670141e-08
1.023643454562814e-07
9.956825705242602e-11
1.513787076644954e-08
1.976621150860536e-07
2.064894492070465e-06
2.524539247125241e-06
3.089395604050934e-10
1.885659632752897e-07
2.016493755597053e-07
2.445912551338635e-08
1.487117151727653e-07
4.742848055988853e-10
7.119134750819296e-08
3.850549154726729e-08
3.285213680507622e-07
2.407492030170828e-06
3.008832365110852e-06
4.063298857949731e-10
2.284304647769483e-07
3.490892656802441e-07
2.421384900676312e-07
2.463642394344273e-08
1.844255976182796e-07
1.103438563492771e-09
3.287741541585486e-07
1.492085402649916e-07
5.312520007581305e-08
4.264248151529572e-07
2.433832604654904e-06
3.577561770303882e-06
4.01090799200351e-10
2.586679984412763e-07
3.407482403149373e-07
6.158181312091076e-07
1.926527150822908e-07
2.869598091550618e-08
2.170674048008954e-07
1.334004203593321e-09
4.9986507455774e-07
7.909382866997387e-07
2.046195018385456e-07
6.916724162157088e-08
5.28780344629731e-07
2.660642429365228e-06
3.627497706053729e-06
3.019435200053696e-10
2.590793968079448e-07
3.539493415827689e-07
4.69070838148613e-07
1.217308453011906e-06
2.08516089383162e-07
3.330212488429296e-08
2.553457625909869e-07
1.558680844032986e-09
9.141993518738033e-07
1.86008105835208e-06
1.054184044300428e-06
2.196689219454755e-07
7.99082634768378e-08
6.171921416129751e-07
2.77055413122741e-06
3.460313738048063e-06
2.935923604545518e-10
2.459661603046221e-07
3.515769674886343e-07
5.158835270951651e-07
1.248681717076297e-06
1.972909902766741e-06
2.278234027235051e-07
4.129219414200152e-08
3.000614041076307e-07
1.309560781875478e-09
1.055231980210509e-06
1.912518771494242e-06
2.829560498385446e-06
1.206677920326782e-06
2.691382080774328e-07
9.716662775254509e-08
6.801678177366498e-07
2.657557565626484e-06
3.573029525512805e-06
2.660344123039434e-10
2.364638480789422e-07
3.675604128713268e-07
5.337982943806323e-07
1.371127456214215e-06
1.899108769482014e-06
2.796034458674878e-06
2.847294717553333e-07
5.246687704004839e-08
3.504359971668522e-07
1.236480234513953e-09
1.006851439234119e-06
1.979987311825339e-06
2.989968347655271e-06
3.871603939384885e-06
1.498850003091305e-06
3.144862700147735e-07
1.250670271802046e-07
7.383187318249716e-07
2.633024532582121e-06
2.81351215795064e-06
2.309181290311676e-10
2.208391897107319e-07
4.059975460629873e-07
5.509532019793814e-07
1.452340117567907e-06
1.889581000358773e-06
2.755027032054865e-06
3.678380062351184e-06
3.344334900215706e-07
6.815870718363642e-08
4.133035647001392e-07
1.360974395211537e-09
9.686258941134599e-07
1.963400608979224e-06
3.034791523364256e-06
4.087807408664528e-06
5.022925033597948e-06
1.626024821542529e-06
4.281745723055499e-07
1.674668782991123e-07
8.100810144413613e-07
2.599346470288223e-06
2.051396237340592e-06
2.130922136432964e-10
1.962403682951541e-07
4.687691576496428e-07
6.672314262826691e-07
1.542275294730426e-06
2.064556986637409e-06
2.922881005497128e-06
3.568298259731445e-06
3.786829182879811e-06
4.124415530398311e-07
9.08142683884081e-08
4.913085673429707e-07
1.332678691905491e-09
9.688750178229788e-07
1.933274991682255e-06
3.023570616733585e-06
4.125273359206543e-06
4.520648972072911e-06
6.303433239244538e-06
2.0440182031404e-06
5.272687573969882e-07
2.281382202030783e-07
9.020805911049228e-07
2.009041614106288e-06
1.479695293477004e-06
2.760727206932752e-10
1.832548191128964e-07
5.766402758724913e-07
7.430960642010015e-07
1.676501481891194e-06
2.197825826815596e-06
3.021190129066419e-06
3.758880596234057e-06
4.483424440147408e-06
4.742561565236497e-06
4.755291559330653e-07
1.209912325594981e-07
5.978683146091222e-07
1.230813146440876e-09
9.630261780984695e-07
1.967482680562009e-06
2.887376064344144e-06
4.115303988513547e-06
4.504389599370001e-06
6.577549713738085e-06
7.410522122454487e-06
2.0585656317038e-06
6.266566054009022e-07
3.102365606482145e-07
9.935428762492729e-07
1.784097142361566e-06
1.180279620519757e-06
3.810506305284846e-10
4.381286160654686e-07
8.004350607936184e-07
8.762490087191046e-07
1.823435095281051e-06
2.475126785687213e-06
3.146745455854174e-06
3.869064569270501e-06
4.710338154518076e-06
5.638793353800317e-06
4.978852283334733e-06
5.881209675961729e-07
1.631513967286482e-07
7.628317340182686e-07
1.458209180383561e-09
9.469370234771458e-07
1.917820349159782e-06
2.986430824403974e-06
4.065979974816547e-06
4.342577910914138e-06
6.676169661241219e-06
6.483644257460038e-06
9.135048175127336e-06
2.397791863137457e-06
7.651806894538321e-07
4.239039123236318e-07
1.112360521743464e-06
1.756381851524575e-06
1.209488647679784e-06
6.678012646880031e-10
6.09362202057604e-07
1.146259515217464e-06
9.953145606435622e-07
1.998001451712811e-06
2.507954272437615e-06
3.292412489328854e-06
4.032281305660469e-06
4.854812920592565e-06
5.912511482144516e-06
7.099052467280315e-06
6.066509735892992e-06
7.204631102314532e-07
2.228780681890894e-07
9.671249841535533e-07
1.440619319287309e-09
1.047381555673192e-06
1.867964283551306e-06
2.925441109109496e-06
4.054410742185634e-06
4.319748532626371e-06
6.676945765514563e-06
6.295071720687735e-06
9.524519657383604e-06
1.017074173112737e-05
2.404657186993517e-06
9.090544348631462e-07
5.638259477656662e-07
1.266592786786137e-06
1.974175242154788e-06
1.418880844120739e-06
9.819136847673149e-10
7.883753715270521e-07
1.300064825952632e-06
1.84150187266787e-06
2.224846768837687e-06
2.661902786961411e-06
3.456320284854181e-06
4.200915650787762e-06
5.065040076113917e-06
6.101981877026347e-06
7.459004641198736e-06
9.057780594984145e-06
6.498751294937498e-06
8.985136916897404e-07
3.076884085521258e-07
1.253739163685e-06
1.318958048235783e-09
1.062598150987487e-06
1.892101075674121e-06
2.615725485109716e-06
4.004353818557054e-06
4.041229414762696e-06
6.626255775020918e-06
6.051381510963594e-06
9.684746862390688e-06
8.418160513008136e-06
1.274358889747804e-05
2.778773650560616e-06
1.059266842343064e-06
7.345967128368946e-07
1.492437908846759e-06
2.366284601929736e-06
1.84458213602726e-06
1.022084004956998e-09
9.95241840431574e-07
1.677375302757937e-06
2.14182063031782e-06
2.626623042978824e-06
3.025890888809347e-06
3.627869925022593e-06
4.406689758477742e-06
5.276421976013336e-06
6.37783916492691e-06
7.703105326055941e-06
9.537329551879042e-06
1.16544672206356e-05
8.033876629142485e-06
1.125045042542907e-06
4.230386999707238e-07
1.589149469559256e-06
1.255301883858678e-09
8.469955165300506e-07
1.891349938533774e-06
2.56573167628664e-06
3.928351683905964e-06
4.196215204968274e-06
6.593581411288049e-06
5.792892535299937e-06
9.653533559300224e-06
8.309285806699909e-06
1.316787777868293e-05
1.297194815937883e-05
2.768391334129174e-06
1.215377545738083e-06
9.679413441202742e-07
1.817829746778781e-06
2.633444873989112e-06
2.45880513996843e-06
1.097589974124756e-09
9.776889246748085e-07
1.910641933810095e-06
2.685228100580155e-06
3.115922759085061e-06
3.550841578472624e-06
3.926465085179268e-06
4.625303475611805e-06
5.543167352860812e-06
6.664997690156096e-06
8.06156810959422e-06
9.872913108650236e-06
1.228325848550566e-05
1.510520561466623e-05
8.983890693118816e-06
1.414448646217396e-06
5.807618100792759e-07
2.051587643093273e-06
1.015243539792925e-09
8.389134889747342e-07
1.854223610272975e-06
2.187645582705604e-06
3.95392040828675e-06
3.801711485433503e-06
6.547336918273713e-06
5.811340359702218e-06
9.609969928788425e-06
8.007226640774703e-06
1.342907007242052e-05
1.129797642173853e-05
1.641773750113054e-05
2.825507358725505e-06
1.320807364954275e-06
1.253065937288227e-06
2.244544830273637e-06
2.958499204199337e-06
3.229296147310138e-06
1.192404912219568e-09
9.479674528340508e-07
1.878904590790964e-06
2.562959724619598e-06
3.827295343144744e-06
4.21932201692222e-06
4.606289037405805e-06
4.958221198542971e-06
5.824741980388366e-06
7.013175611861409e-06
8.450117911979016e-06
1.034551102776699e-05
1.273184594720154e-05
1.591252075632176e-05
1.954318137524668e-05
1.102581823047971e-05
1.797874106369838e-06
7.967585735319169e-07
2.752437646609093e-06
1.075576005151783e-09
8.081763517737452e-07
1.872347301227218e-06
2.097559776299781e-06
3.931835425460006e-06
3.644311814665062e-06
6.470333216157652e-06
5.760786742261185e-06
9.546698291470706e-06
7.702396893810792e-06
1.344394477029094e-05
1.17916278118322e-05
1.850595763392439e-05
1.664316495620806e-05
2.9411515495759e-06
1.385664332791551e-06
1.463556407186154e-06
2.867456597658841e-06
3.294956074396621e-06
4.181765477995169e-06
1.426287959476337e-09
1.01678955060227e-06
2.019269689381663e-06
2.331826505676709e-06
4.15875898461151e-06
4.687147190017069e-06
5.497435755523392e-06
5.870937645697528e-06
6.330231898448368e-06
7.398668826705754e-06
8.901792452692852e-06
1.085258082022718e-05
1.334080586244481e-05
1.652093607486975e-05
1.92392264759502e-05
2.283472770559793e-05
1.289051612974821e-05
2.297187163724728e-06
1.127159948473611e-06
3.761923635319373e-06
1.38769136675968e-09
9.68450332776557e-07
1.775318582780275e-06
2.422747811692763e-06
3.781297636621367e-06
3.841490422087748e-06
6.445551691656257e-06
5.605816025725824e-06
9.454431123365294e-06
7.798868880531191e-06
1.336422077096153e-05
1.048544141034631e-05
1.885145993722897e-05
2.212568280731749e-05
1.678051628777701e-05
2.965466145792234e-06
1.392394625432362e-06
1.587945892056085e-06
3.790103411738318e-06
3.749873779803345e-06
5.362085032394272e-06
1.776143663188024e-09
1.150722287451681e-06
2.158468871345273e-06
2.564887166091214e-06
4.35890347282464e-06
3.578114492269212e-06
6.713514255402967e-06
5.842199271328853e-06
7.513023407022217e-06
8.086862894572212e-06
9.426794330749408e-06
1.144973464356472e-05
1.401993040851495e-05
1.732627076436723e-05
1.999238831103794e-05
1.942268458516119e-05
2.417926757559587e-05
1.511020114225439e-05
2.988934985218738e-06
1.628393195986635e-06
5.238674211362711e-06
1.448161624772041e-09
1.104250254771204e-06
1.844620322167927e-06
2.260331123540547e-06
3.703884543290999e-06
3.608793185399276e-06
6.331781837653458e-06
5.692316932425805e-06
9.343344517788682e-06
7.512461792280743e-06
1.331070478301893e-05
1.032638497657735e-05
1.883756876048719e-05
2.190169986948711e-05
2.280760578204055e-05
1.663417499259663e-05
2.935653904007785e-06
1.356604400841612e-06
1.745015629338715e-06
4.825604046754452e-06
4.374835657435563e-06
6.976426459024378e-06
1.504808903500713e-09
1.558798572588994e-06
2.334912796075529e-06
3.326278948583602e-06
4.744358323681818e-06
3.580609616595137e-06
7.558421840474748e-06
5.790241008585566e-06
9.22536037706413e-06
8.832395026077973e-06
1.037154962939414e-05
1.21739207501836e-05
1.480186910844397e-05
1.82342822302805e-05
2.172601713861234e-05
2.035177346526519e-05
1.994351581481501e-05
2.478260919788101e-05
1.816958468772464e-05
3.919672005048324e-06
2.377427007119567e-06
6.880626906080713e-06
1.228235247761605e-09
9.149721250649399e-07
1.80507005035895e-06
2.651543878719459e-06
3.626205310552901e-06
3.451914400539321e-06
6.06875358434468e-06
5.344965753420325e-06
9.263920085943084e-06
7.408991778405294e-06
1.318491778817204e-05
1.029751859614984e-05
1.785955476184852e-05
2.048769368561578e-05
2.123646251615138e-05
2.931979205896769e-05
1.511594302047406e-05
3.089169219748979e-06
1.37397965555543e-06
1.943592244718138e-06
6.150963764917998e-06
5.224034191780218e-06
8.963112971379747e-06
1.756986197797409e-09
1.248649678476608e-06
2.565506598363491e-06
3.654893075625561e-06
4.911632599645226e-06
4.656821266646519e-06
8.024974338058187e-06
6.339733297595414e-06
1.147216026636113e-05
9.496807434227337e-06
1.256645082184555e-05
1.343644020625576e-05
1.575668296345772e-05
1.927955174926818e-05
2.364756332385928e-05
2.211700280431314e-05
2.14176633530921e-05
2.071298989809337e-05
2.518658734600495e-05
2.219904482926019e-05
5.18245814069497e-06
3.46975899778408e-06
5.986868515890899e-06
9.496250090882208e-10
6.692927477077368e-07
1.644792190941094e-06
2.204851607031895e-06
3.510385717109861e-06
3.848941633032052e-06
5.802511205444206e-06
5.218981426021648e-06
9.067730167383348e-06
7.387483811431544e-06
1.306760110009969e-05
1.031104003852666e-05
1.725854005647448e-05
2.07125138140511e-05
1.960001131280479e-05
2.568973548726525e-05
4.357647042448964e-05
1.561450988473447e-05
3.429594763536736e-06
1.524501994058349e-06
2.213915326931841e-06
7.950907125769347e-06
6.210073663349825e-06
1.128050755750219e-05
1.504321091889355e-09
1.482618452688638e-06
2.359852435642069e-06
3.660971420558579e-06
5.040568793636983e-06
4.827840255267622e-06
8.481600772286244e-06
6.651276456433165e-06
1.286297166720506e-05
1.011677620187257e-05
1.570555440630747e-05
1.634858547743645e-05
1.740945124169015e-05
2.053614871136082e-05
2.505941185192755e-05
2.523768855914881e-05
2.333616069790802e-05
2.233444242845495e-05
2.148562176609023e-05
2.529542989037813e-05
2.579200753929668e-05
6.847550467105877e-06
5.31669499468161e-06
5.095417341520765e-06
7.063734599839605e-10
5.779281263998493e-07
1.363991182821246e-06
1.552737049522165e-06
3.267076090669936e-06
3.418276605736399e-06
5.575523900108122e-06
5.316726488903975e-06
8.726780472359446e-06
7.365777632265885e-06
1.295122706450105e-05
1.03099806525424e-05
1.693007811794367e-05
2.013174034371422e-05
1.967102073594614e-05
2.473167677253775e-05
4.461564349882121e-05
5.595288476489586e-05
1.611150233523665e-05
4.061924160168708e-06
1.822658557681435e-06
2.587105503983509e-06
1.022329004451466e-05
7.448973767463885e-06
1.409615322268949e-05
1.522494366024344e-09
1.09370659104079e-06
2.54646764019825e-06
3.218483234502702e-06
5.103417243758322e-06
4.722604839737729e-06
8.758137841306818e-06
6.845534845250405e-06
1.357447496439515e-05
1.022676058684148e-05
1.955556912656448e-05
2.052148258399346e-05
2.131764091965579e-05
2.275600817445421e-05
2.665637780269616e-05
3.138117276965851e-05
2.704718173898898e-05
2.446270210211995e-05
2.344599774626134e-05
2.285494143161355e-05
2.58666993094666e-05
2.915005212790366e-05
8.999797568672123e-06
8.284557552798632e-06
4.86247643332598e-06
6.97549912366193e-10
5.673947834177487e-07
1.340826171586595e-06
1.340418389442822e-06
2.930321617584308e-06
3.141080679534806e-06
5.398129297476735e-06
5.115048383945548e-06
8.235181401599298e-06
7.131425909415949e-06
1.273317197166099e-05
1.059607627545433e-05
1.624762276051018e-05
2.049728831796809e-05
1.926250001303931e-05
2.370844163190572e-05
4.465437152955511e-05
5.866492103399077e-05
6.86708707840502e-05
1.826049624288425e-05
4.99685217852323e-06
2.240704355961277e-06
3.184159253471407e-06
1.355035312209073e-05
8.983416540464761e-06
1.731511550018154e-05
1.608339891746253e-09
1.037258771466247e-06
2.094352765614561e-06
2.673034304324873e-06
5.00217267847931e-06
4.743464378320664e-06
8.856804578854619e-06
7.472095091054479e-06
1.412375453229028e-05
1.080625981867535e-05
2.183216605284539e-05
1.831248030368304e-05
2.7050464309287e-05
2.799855642199213e-05
2.95401355841633e-05
3.451537079372604e-05
3.453212923165396e-05
2.8470584339887e-05
2.565904704528909e-05
2.505771959734028e-05
2.447507433708874e-05
2.694128261859991e-05
3.184754832272889e-05
1.166475664867785e-05
1.259639079997063e-05
5.284858577330245e-06
1.02087520343677e-09
7.555494968422321e-07
1.366782109985652e-06
1.313576174452073e-06
2.702164775033149e-06
2.424406028388325e-06
5.133924959707544e-06
4.783323929794445e-06
8.021161532143586e-06
7.030334573211276e-06
1.230610533726305e-05
1.060219474899111e-05
1.558165092417213e-05
2.033308967090873e-05
1.960727370655383e-05
2.328263571435563e-05
4.203144162336225e-05
4.951938171540027e-05
7.769423838587711e-05
7.75789627259288e-05
2.118403889870088e-05
6.366742752313371e-06
2.804073750601414e-06
4.060247579286482e-06
1.833895911686085e-05
1.092001474004544e-05
2.097573548465412e-05
1.755887647678857e-09
1.064979932296924e-06
2.170110131944939e-06
2.684883994651118e-06
5.010924813176118e-06
4.67224143655338e-06
8.818147473879511e-06
7.877896476992708e-06
1.446405791283906e-05
1.166402889593141e-05
2.278599216495658e-05
1.882124802546152e-05
3.428550049555162e-05
3.576309243116682e-05
3.659195313662997e-05
3.151307526379511e-05
3.847678620718424e-05
3.555740080446123e-05
2.980641634673881e-05
2.762316823095986e-05
2.710358272337573e-05
2.688660273623688e-05
2.861413089566839e-05
3.501858023712565e-05
1.481309186232759e-05
1.784579190907248e-05
6.257937621975252e-06
1.523874476898297e-09
8.489554196370008e-07
1.380913179607515e-06
1.502611152379585e-06
2.608872565904729e-06
2.320408368232419e-06
4.750479185670383e-06
4.313881934429747e-06
7.970138765690212e-06
6.91875168137051e-06
1.174760304117766e-05
1.109972512533035e-05
1.459610656780748e-05
2.029980475931013e-05
1.955725418124746e-05
2.355940548542699e-05
4.041044589479898e-05
4.836891585049789e-05
7.7686220339704e-05
0.0001008921142339729
8.956597684349336e-05
2.599737437549403e-05
8.255917330794814e-06
3.611377134397655e-06
5.520155057342956e-06
2.505281191645502e-05
1.330271900076874e-05
2.477480477093062e-05
1.806617483571886e-09
1.13966553515831e-06
2.215148179282643e-06
2.763858664777877e-06
4.833177795918314e-06
4.447410440398275e-06
8.740675368181547e-06
7.52208308201877e-06
1.45478595586183e-05
1.241991898721286e-05
2.349743605443332e-05
1.916937871040756e-05
3.794273794348622e-05
3.780292345845013e-05
4.711779638597732e-05
4.202291643179004e-05
3.125565478341663e-05
3.893954595225913e-05
3.620927771219114e-05
3.220266245787493e-05
3.002095209441915e-05
2.999605554295675e-05
2.987091528259203e-05
3.092116920668873e-05
3.715215354684346e-05
1.83889884921952e-05
2.169643719296062e-05
7.944916408067288e-06
1.40083774719628e-09
8.911635486757532e-07
1.335339845849505e-06
1.331181146641795e-06
2.581587130365526e-06
2.265942439763222e-06
4.558573617216725e-06
3.69582240348579e-06
7.907470205423275e-06
6.947457289258431e-06
1.17240274550337e-05
1.195281323506995e-05
1.328175336033894e-05
2.009736519398934e-05
1.962540807569325e-05
2.328969921061254e-05
4.234471081056019e-05
4.576420891086557e-05
7.747067948879737e-05
0.0001008167668238504
0.0001295356806898373
0.0001120321786825052
3.251541489624159e-05
1.089729514299025e-05
4.744422384352119e-06
7.823951727005684e-06
3.570530256374494e-05
1.617149942386381e-05
2.937813801374404e-05
1.859720544735751e-09
1.193331301791086e-06
2.277211353580017e-06
2.813943807780002e-06
4.996876896858124e-06
4.288441423466505e-06
8.713332236862192e-06
7.317451118491737e-06
1.466582957746085e-05
1.225612035513843e-05
2.396511178662616e-05
2.071606355128503e-05
3.937874718687281e-05
3.610240316808418e-05
6.079072604257422e-05
5.395520643997984e-05
4.175785108782053e-05
3.597972690234644e-05
3.815153660096393e-05
3.830560461414617e-05
3.484465295483982e-05
3.347993135996025e-05
3.349893350944443e-05
3.388029442306477e-05
3.389512731025576e-05
3.998998808931812e-05
2.230939331662933e-05
2.299168469482236e-05
1.041489056823555e-05
3.095155170952265e-10
5.606336445484332e-07
1.136343426414317e-06
1.281575576006442e-06
2.360685080186084e-06
2.441084359741624e-06
4.207421606190778e-06
4.210688555498007e-06
7.545154376994626e-06
6.875025975645244e-06
1.189150732170658e-05
1.32962550581014e-05
1.245684237499227e-05
1.964186329611316e-05
1.980005592929537e-05
2.28855047684078e-05
4.185110286145259e-05
4.863758610036049e-05
7.611049353646567e-05
9.792582081631397e-05
0.0001294664809584217
0.0001635067589846972
0.0001446356570653573
4.210963594806721e-05
1.449375108526329e-05
6.310037345289717e-06
1.1039584491442e-05
4.896958070318813e-05
1.964008510747173e-05
3.3070490919084e-05
1.907541975195227e-09
1.215396570357764e-06
2.268985872821783e-06
2.929184623268763e-06
5.154877905422544e-06
4.497404033674159e-06
8.873317201668225e-06
7.139986629194549e-06
1.476226580980492e-05
1.271138579325931e-05
2.444531287617241e-05
2.078540645579865e-05
4.051389403095641e-05
3.733620232878962e-05
6.773122466012955e-05
7.430447700091343e-05
4.98216603326329e-05
4.585912641184623e-05
3.425967105968759e-05
4.063163168487352e-05
4.01419200749021e-05
3.875570581731215e-05
3.753526456893579e-05
3.801513682192272e-05
3.84300293485212e-05
3.887617271613934e-05
4.399512703324609e-05
2.716985183412262e-05
2.457061323055007e-05
1.142072102028661e-05
2.853550804042008e-10
2.221423093249386e-07
8.375739407555255e-07
7.947904727256779e-07
2.206737040286171e-06
2.117077200786506e-06
4.027074224132986e-06
4.40736913990309e-06
6.875410304833478e-06
8.104635620298942e-06
1.084548557753165e-05
1.415444878256268e-05
1.197494468518649e-05
1.985772051814913e-05
2.036780679131074e-05
2.254552398432582e-05
4.082557988458276e-05
4.806888883355341e-05
7.65651492475069e-05
9.007865552141355e-05
0.0001290548505812548
0.0001633497413186059
0.0002025631612253316
0.0002072469043384438
5.529045799209858e-05
1.941741301730919e-05
8.467193006413583e-06
1.428345661922004e-05
6.816994268725351e-05
2.016634366920505e-05
2.813372200933823e-05
7.15758435230645e-05
1.944045168302745e-09
1.222226774773691e-06
2.315999544405971e-06
2.857578721864144e-06
5.245518379475914e-06
4.854619094642325e-06
9.158868019389061e-06
7.310064299340166e-06
1.490047781911003e-05
1.269314785321493e-05
2.476556752987251e-05
2.16302566248692e-05
4.151494177256526e-05
3.823371340387289e-05
7.021470602964642e-05
8.44950499217688e-05
9.166321823568848e-05
5.800483362270261e-05
4.420095892172829e-05
3.888977121238811e-05
4.115608210417084e-05
4.371925304763037e-05
4.287190245986104e-05
4.267217475587703e-05
4.285470000936948e-05
4.452033954639572e-05
4.488424619529929e-05
5.095977884107532e-05
3.145783498653533e-05
2.436612562988167e-05
1.088672480412625e-05
3.178060591850454e-10
2.930978637685662e-07
6.04785388163825e-07
6.010127466386808e-07
1.799107375020841e-06
1.853854518157049e-06
3.892327013680417e-06
4.783794917404479e-06
5.890612965482416e-06
8.483564365751242e-06
7.940990404668168e-06
1.390047979729279e-05
1.194322489254439e-05
1.930600777885608e-05
2.224431397216038e-05
2.191334027221531e-05
4.041578297764728e-05
4.681926551334477e-05
7.614127335634775e-05
9.933175684241647e-05
0.0001282999722557938
0.0001508689614886628
0.0002022550280044811
0.0002462001153426497
0.0002914292652003686
7.412315938976997e-05
2.611188055136282e-05
1.149684919053585e-05
2.392408347054639e-05
7.845216320713329e-05
3.609479810812323e-05
2.90781694652254e-05
0.0001072524152292543
1.961489065279499e-09
1.239150582949594e-06
2.394782076570446e-06
2.804058358362358e-06
5.295057049990703e-06
5.00582472285712e-06
9.342417307144974e-06
7.542859145509175e-06
1.532575469131754e-05
1.252596039080852e-05
2.521639979350668e-05
2.163993113096234e-05
4.244698099353094e-05
3.95417377267871e-05
7.243401192443708e-05
8.498857422385672e-05
0.0001168828104307743
9.954770745349622e-05
5.363333767235276e-05
4.785167361915845e-05
3.841396772309637e-05
4.472789544901251e-05
4.70247322710548e-05
4.779540932184383e-05
4.773389851939926e-05
4.942167916570945e-05
5.180342085667789e-05
5.338544174704474e-05
5.408068272221943e-05
3.385544469793599e-05
1.982213409118887e-05
1.244599531671687e-05
3.866849262543804e-10
3.995123399038439e-07
7.522299499992318e-07
6.419759886098593e-07
1.521537449404375e-06
1.286132189351648e-06
3.953712521451537e-06
3.634859880155276e-06
5.763734545842928e-06
7.910799104028444e-06
7.395955896454786e-06
1.328407855017114e-05
1.158567779652652e-05
1.803139705522942e-05
2.421180897109539e-05
2.27752857965136e-05
4.012675772234592e-05
4.675082190607679e-05
7.556616181650163e-05
9.880367415026047e-05
0.0001275260753966545
0.0001618711186752914
0.0001873873579440253
0.000245760343066042
0.0002937883328347689
0.0003425793458950549
0.0001008290429893375
3.515359747841426e-05
1.633627781982352e-05
9.905957543245157e-06
7.372695037389852e-05
1.911383530177599e-05
3.394988100423265e-05
3.020384474210472e-05
4.781467530681526e-05
1.389354555908701e-05
0.0001094845793420519
1.985020220526462e-09
1.26770076079429e-06
2.427653024905004e-06
3.149086978457969e-06
5.48656937992855e-06
4.823861480303429e-06
9.548182490213332e-06
7.682943028966213e-06
1.570865393379562e-05
1.282629230822242e-05
2.561923684998258e-05
2.192442080050683e-05
4.322605552261514e-05
3.989946551232921e-05
7.435382545439281e-05
8.862598227472294e-05
0.000121532465526481
0.0001525358878210594
0.000100441595687942
6.178289052766738e-05
4.889391954553188e-05
4.348885513251831e-05
4.674983335135489e-05
5.113620384053577e-05
5.214261731691115e-05
5.406825463614131e-05
5.68223804585271e-05
6.155087191776587e-05
5.84028912332818e-05
6.349748852113924e-05
8.239278096489888e-05
3.645357434585751e-05
6.896854681125439e-05
4.457757698983101e-10
4.6348225740988e-07
8.605760112859021e-07
8.793444869675579e-07
1.379284011661689e-06
1.247562360686142e-06
3.375698370872632e-06
3.366268241351191e-06
6.64852532663425e-06
7.480289344673924e-06
7.4779414006938e-06
1.119252840622679e-05
1.258012239393879e-05
1.613791233300279e-05
2.542275485166129e-05
2.303487025125381e-05
4.12563729132077e-05
4.674649992184425e-05
7.459933583286366e-05
9.412252880744052e-05
0.0001268716657356479
0.0001609762672916668
0.0002003195725741426
0.000209436954076545
0.0002931579606217367
0.0003452574222703964
0.0003987440733878138
0.0001384643308279756
4.703567306707495e-05
3.439550255539384e-05
8.648327187891222e-06
1.193026183570455e-05
9.415715478464569e-05
4.326410000007347e-05
5.812476853356799e-05
2.952128400037342e-05
6.058706023675099e-05
1.981472920841318e-05
0.000203458931318549
2.377570853572118e-09
1.275196269474213e-06
2.47111610952028e-06
3.229587243913122e-06
5.597779166124954e-06
5.323884351922192e-06
9.70925858529222e-06
7.966749701924969e-06
1.598459809134537e-05
1.318610916024456e-05
2.633926835369324e-05
2.146106653286167e-05
4.425374592835874e-05
3.961288184721367e-05
7.623847911205061e-05
8.965584117319998e-05
0.0001254605641595108
0.0001587104144509816
0.0001979200667886593
0.0001144162996490475
6.11141740797131e-05
5.386587749482434e-05
4.363761991408467e-05
4.949027095363519e-05
5.444430459651361e-05
5.7677760524098e-05
6.136413754144693e-05
6.679660384975628e-05
6.589264656834266e-05
7.034620362910471e-05
8.868528638085647e-05
6.700866477323167e-05
4.244478677468066e-05
0.0002923767503807572
1.695676356247761e-05
4.568905759632098e-10
4.918485037004669e-07
9.314252323031029e-07
8.976216907308415e-07
1.49598607229269e-06
1.167774316266656e-06
2.734891269361294e-06
2.433034197338872e-06
7.049293861881299e-06
5.988325199943097e-06
9.945168687762715e-06
1.019207121046606e-05
1.34072437004218e-05
1.250441687678202e-05
2.402698458475743e-05
2.358261505921472e-05
4.250368319577039e-05
5.409972075095525e-05
7.290988222356722e-05
9.44005613981517e-05
0.0001258807212434491
0.0001601068138073784
0.0001992571079368548
0.0002433137227492671
0.0002522526714859657
0.0002996503409111942
0.0004018240028999397
0.0004600492020881163
0.0001900236202356117
0.0001330284863259719
2.727265430803608e-05
1.503477417149133e-05
3.324250243611814e-05
0.0001066447811346036
0.0001488310962814139
2.005032009889971e-05
5.362608318137642e-05
4.602109544443415e-05
3.532030481299192e-05
0.0001310040929234091
9.577041286723884e-06
6.245958825425395e-05
2.757246457928489e-09
1.390401147986923e-06
2.576893470656479e-06
3.219171032049282e-06
5.734544182797391e-06
5.079618316587101e-06
1.000477823635051e-05
8.061829035770463e-06
1.637462774089919e-05
1.311997525071123e-05
2.683118775255583e-05
2.284629218698379e-05
4.512255825432477e-05
4.032909509042048e-05
7.812621219682073e-05
9.011266321095083e-05
0.0001292934899722445
0.0001637908300752248
0.0002069203941119404
0.0002350191192981277
0.0001145131019313129
6.974147298317503e-05
5.745369753288872e-05
4.649521197305486e-05
5.208275942624192e-05
5.858501676559414e-05
6.419034178493959e-05
6.92128133854396e-05
6.612081523681443e-05
6.363478178791191e-05
8.280424800771564e-05
7.288324636722222e-05
9.026859505810778e-05
0.0001086253889738149
4.67456306030468e-05
0.0005517133156651443
5.204003124635036e-10
4.905347387023375e-07
1.015384445883164e-06
1.0024794166762e-06
1.725415538208926e-06
1.121569560809752e-06
2.267628020116413e-06
2.088199644437349e-06
5.829905374675021e-06
5.733792847149002e-06
1.069568841387399e-05
9.278289946669589e-06
1.438929555125985e-05
1.2252425125053e-05
2.488326177056872e-05
2.216829827625007e-05
4.479584065738064e-05
5.607640698786094e-05
7.147796308214753e-05
9.48389965840899e-05
0.0001243040046158947
0.0001588244946327645
0.0001981539321122058
0.0002420294604743129
0.0002901181908042144
0.000299218952867805
0.0003244365597632082
0.000462255081872373
0.0005247500868870652
0.0002623417616025598
3.891850832179234e-05
0.0001266813329012056
3.625925655131221e-05
1.759799823910699e-05
2.139520421155311e-05
0.0001387978584066179
0.0001273011487134427
3.313165383268142e-05
6.297712658369486e-05
5.374389396191553e-05
3.150599174408782e-05
0.0002233703276315083
1.70538978189147e-05
4.521715536662419e-05
2.188188638330981e-09
1.739890550575667e-06
2.81991796493135e-06
3.741370228882804e-06
5.858613150336856e-06
5.29694737543365e-06