/*--------------------------------*- C++ -*----------------------------------*\
| =========                 |                                                 |
| \\      /  F ield         | OpenFOAM: The Open Source CFD Toolbox           |
|  \\    /   O peration     | Version:  v1912                                 |
|   \\  /    A nd           | Website:  www.openfoam.com                      |
|    \\/     M anipulation  |                                                 |
\*---------------------------------------------------------------------------*/
FoamFile
{
    version     2.0;
    format      ascii;
    class       volScalarField;
    location    "7000";
    object      k;
}
// * * * * * * * * * * * * * * * * * * * * * * * * * * * * * * * * * * * * * //

dimensions      [0 2 -2 0 0 0 0];


internalField   nonuniform List<scalar> 
18230
(
10.55541247641265
0.6063063178289523
29.29102490777195
49.73572796694946
0.4298428017927435
6.009981617673554
1.407306807801009
105.5773657937991
70.61908676359378
0.9124122244368487
2.531126972163883
9.998377175529351
0.3310665650555605
13.37596781132891
113.449948831699
83.0984269076741
1.309661856790923
5.390912528030319
3.183341248668581
13.60165479054954
0.5888483046136574
5.876853926905937
20.32233753399976
106.9481927905593
89.48034143461767
1.079837483166955
7.405778589827851
3.963572330047884
3.019429929696783
15.52638752812739
1.234259903577261
3.633212152486001
7.466307462928331
25.13475862329097
91.75191486484019
90.90432602741798
1.299451816269854
7.235086365627963
3.677941244137132
3.298208491401769
2.868424328921554
16.07152803106858
1.853030932307927
6.377137689467866
4.864112088798433
7.328561506988989
23.19516172140126
73.02033328043926
91.76261193263866
1.286720953110021
7.54261930015865
3.769154520965078
3.888471268839411
3.07055094891885
2.826517431233947
15.79786387625368
2.119190079321294
7.540656184902436
7.681167388928055
5.624550438540345
7.082921747380804
22.63205205566522
54.10130218354843
91.05409164134697
0.9720119450298215
7.607032407729346
3.699303537285032
4.029253799498819
3.698339235792318
3.18423342737448
2.886865802235769
15.54175394721693
2.397149220384629
6.835473171221832
8.948164126410315
9.001625571504324
6.661907783834859
7.318580360575508
21.68607829579577
40.79705463975219
88.40190973719088
0.9151741482816571
7.6154957933482
3.693696663092247
4.032019354878813
3.782066635690449
4.009601409746399
3.474511442219648
3.017640072308013
15.34196170520316
2.147593447579388
7.960258943732555
9.304665021066123
10.82238874846505
10.53284555371919
7.838619941631958
7.870420128436633
20.3373594972693
32.49092977451002
78.11580860912746
0.7954938444476678
7.52594108518102
3.657801167297759
4.007795444955489
3.795018572486181
4.12151320340404
4.318113223744744
3.829205611415477
3.216118887695774
14.93796587145422
2.030924790608555
7.981823761011553
9.651928306826836
11.608609622742
12.54241986494716
12.10211510350837
9.135310119861556
8.585421246771677
19.60870829696947
25.28964820989501
54.49093560398283
0.6611522658098179
6.951493628310027
3.70235325259726
3.975285930003388
3.842487747724642
4.17625186062689
4.385551260427751
4.763506656656045
4.24702599843655
3.475500256104818
14.62517719702039
2.158946462663463
7.840073588396058
9.674492129160511
11.7464998240004
13.42939368253178
14.39575962994525
13.44775171936427
10.27146833746208
9.462085552038188
19.64073444751793
18.23893236017799
34.194005491402
0.5700650278971248
5.90624586470055
3.682148057658782
3.945859866839639
3.87607027827574
4.230070100540543
4.476880110861005
4.880597684423521
5.214313194656935
4.712609758767571
3.794393292205121
14.43900882166236
2.191088496253763
8.009196954229871
9.642867589158104
11.82162015259036
13.47328230509338
15.48149020010838
15.65881857286102
14.80275267669698
11.32208806873005
10.49568612132638
20.43108816047406
13.62037515130411
21.67537686278285
0.6533920023244125
4.205346700574269
3.585502483777201
3.909211218166522
3.916857040244544
4.28743092256092
4.558212586765251
4.993932458111683
5.31004175411914
5.747674041525937
5.234691607754715
4.17058425125804
14.5802712147784
2.034572857827503
7.839458899893752
9.714912212020952
11.80282552354197
13.49729458017723
15.50561849902428
16.65302537777782
17.26100668424113
15.73425728611072
12.35068484703734
11.66711422731012
21.20231615779476
11.88498154116886
15.54687377554273
0.7546635745795667
2.503409387624731
3.218529213598583
3.829695979385439
3.963144327808122
4.368067456506044
4.658548836249466
5.100799781622236
5.434789916804282
5.870090001226245
6.244290782203579
5.780145881294607
4.598914555709308
15.43167629005229
2.334256160519598
7.589497834253178
9.654388158704124
11.84094396644372
13.43419256580488
15.5866133819029
16.73369952934338
18.32260515834516
17.76689191284828
16.69011023684841
13.13769980924105
12.98348390162111
22.5231925231829
11.62593201455021
14.55911553742688
0.9215065608269515
2.741854581699572
3.075224166376992
3.749286941611885
4.02244297038349
4.461353636079337
4.771896887872708
5.238918789453819
5.562251200384851
6.008227831539722
6.350451228480158
6.786666294352049
6.345634549848571
5.07002346002828
16.10651248431552
2.437961196284918
8.289291142169288
9.64828548201873
11.87313215386453
13.45735493779019
15.55378134000144
16.78175535004601
18.36646316707014
18.79994215773979
18.84120424874119
16.8925183742923
13.67011076075076
14.43379385277773
24.27095127008052
13.04704211069523
15.80174435985262
1.152940830427928
3.189241571628624
3.560184196390486
3.817995424714155
4.13857699857906
4.573507317704529
4.909815943865338
5.391326430322839
5.721779389492259
6.153546781805204
6.498346652427775
6.90389359945754
7.328742339934779
6.948923853829615
5.585759713440691
16.92049026251532
2.285782869336008
8.764082155226612
9.852950107196243
11.99715692299827
13.43955137304445
15.60153256479387
16.66270344479977
18.43381180792232
18.84317229611032
19.85852682320664
18.368949480771
17.21240157792625
13.75711880108664
15.5818008228211
26.474345736569
15.79770213533587
19.46180910649718
1.199750888615497
3.739985372372627
4.257052644408468
4.432405417045002
4.520676046038457
4.789615536312718
5.079153713449217
5.573852387582201
5.892005321646941
6.33930355352752
6.64923105277738
7.059156054801306
7.433008943060231
7.907578683157842
7.586241611288187
6.139733937306619
17.29149380896766
2.246240708967808
9.500586434938898
10.10580621988193
12.18512703226362
13.4171049342452
15.56100210593681
16.6099898132014
18.35443900603357
18.80115442065722
19.97357782253587
19.31174672346234
18.79592393214768
16.65874662650191
13.59074601859848
16.27303036884435
29.14587137355386
19.31701137288901
24.61248298672396
1.226398842065844
4.461168828779198
4.922685745078453
5.296842640825044
5.308002297905421
5.385055197706112
5.390986217091913
5.798776385100507
6.103234010166417
6.540270939285182
6.837952342481862
7.220434581898067
7.593344568372958
8.016741570217143
8.517448560852602
8.269622030628977
6.735848026783009
17.56119730644726
1.837557083455874
8.940735407705281
9.947774150118436
12.35304325406325
13.48112252989252
15.58397461824488
16.49824176065518
18.23989760670599
18.68732897472135
20.02346362254581
19.38095376603342
19.7322606553256
17.48607153264878
15.88194107668699
13.16222526071796
16.40455151667713
31.81593106148672
22.5579931388794
29.66319955101908
1.218489118067724
4.807337102947308
5.272683305826441
6.36559989539056
6.359496598131185
6.258141024286777
6.118961912062089
6.19168762647482
6.358229231246191
6.783913502763897
7.046507101431358
7.418898655458821
7.755930227108319
8.176902167456612
8.622322984395046
9.161807670109821
9.027181738326192
7.389791934574944
18.00919483397301
1.841541603172542
7.752931732750491
9.391939669952524
11.92058530505173
13.31827466527982
15.49356105975967
16.3811010875197
18.10857127252421
18.55940837556017
19.9531513222667
19.39550799531834
19.83952103766065
18.27539036124489
16.43098760664658
15.06883173733341
12.52929171189232
15.74277546943924
34.20518105648913
25.02525738351309
34.17209693312322
1.305697937552272
4.557956899180276
5.496513961956698
6.765865577507856
7.209341152581809
7.594730858237696
7.149830100807949
7.05324298938049
6.791621838189642
7.078959259872223
7.290819652375838
7.638468463982227
7.950467534298864
8.344074532976553
8.785452445184484
9.274897581680552
9.898360247403653
9.870711011417058
8.124677484502278
18.26344182651003
2.292512163832803
6.603529931193944
8.749510753583071
11.14531357638459
12.78727622949915
15.12455161146706
16.30959717510551
17.97268136468483
18.35689281233106
19.81330641859271
19.28662300502835
19.93635567114148
18.31453316036121
17.13821027426178
15.45823709664674
14.01660057534752
11.73879967226815
14.29095363015678
36.47916273295923
27.55117543569953
37.84204549495816
1.583431987547568
4.288642877956607
5.45207667517547
6.871177015844548
7.469701219132959
8.753321984020246
8.394832078484681
8.346385393857602
7.713586391323585
7.577239704467434
7.594809952758194
7.895550324812419
8.167745899289736
8.542537526715126
8.959856242756864
9.438625912217542
10.01948157480137
10.70712044384864
10.82829466213089
8.945337094980312
18.2316757530664
2.435193749511238
7.886016248036652
8.647089546935398
10.84880211364409
12.26531845113209
14.64195428171463
15.9172910480895
17.81685232402649
18.17782626193761
19.67718677892034
19.13872902129585
19.80135404876247
18.35732555168139
17.11546304035696
16.06269691643813
14.05934893208003
12.8076126975729
10.94290366198245
12.83610169300388
36.55833938224164
30.08312387103819
41.48099078425843
1.374880926386844
4.593861509433848
5.426540548926474
6.694221382381095
7.592557151769113
9.006801949940003
9.296574729344261
9.786585330455765
9.001006063650019
8.623773599822414
8.099079960612755
8.212777416913649
8.421213140720795
8.765397385090978
9.163734936281937
9.618502843472868
10.19065601609651
10.83703121587422
11.63367708559351
11.88272144802878
9.85330622061413
17.88823540143169
2.109363105154587
9.792948336610481
9.415884293800156
10.85531722178729
12.12274835634615
14.22392279341855
15.39755831263406
17.61943432025327
18.00748701727964
19.47219609522753
18.96169721778151
19.60127854074937
18.25563966711804
17.09877024975746
16.022516118934
14.51357031842783
12.71580605207323
11.93899424827025
10.373326023715
11.67089731940414
36.38236818933571
32.30426146885266
44.01854379695297
1.549218299983536
4.786839602135029
5.640690202342614
6.651360744965772
7.602130398477746
8.894214954734277
9.536331438488993
10.62238791499627
10.28820014599555
10.04023745982125
9.12768840059446
8.730802151635432
8.742919688572785
9.024642695400168
9.390606423870894
9.826691843706893
10.37431922908418
11.01228195156029
11.78161913125513
12.63860546757257
13.03123913619213
10.86617739450028
17.57615130031959
1.690941180596433
10.77104924818841
10.14610233970725
11.74193433314794
12.4974448832856
14.03573070484427
15.11608619179721
17.13132445564947
17.7473590620216
19.2867210831924
18.75929604579962
19.40531898052538
18.11361845897171
16.96138323281542
15.99743738370084
14.48238737778305
13.05936210067103
12.07537405615194
11.49960450593025
10.00740171754003
11.01706031042249
36.4027917608609
34.04108394803306
44.88549808453369
1.276666655787347
4.858283859007771
5.818831809459833
6.882561485960439
7.654758181052038
9.002454944919736
9.615733619351369
10.87426392269905
11.05976256895058
11.45888139432778
10.50569084932066
9.808903170727813
9.266906887154828
9.349166701273539
9.658666508892347
10.05816756274398
10.58571552709411
11.2003401156974
11.96681748505123
12.8066049767203
13.73189151829178
14.23170899597356
12.19995948564425
17.63430789644303
1.193091100098543
8.849373610686747
9.438771529362484
12.67997435573503
12.8696134402388
14.71790191532854
15.09812113930885
16.65789016516596
17.40750847312389
18.9586298263728
18.61230446599749
19.18071500300379
17.98555856791386
16.81024955640209
15.87048110043849
14.45969513105491
13.05061026378296
12.36589089582283
11.82162332184016
11.52674355530615
10.06735270403523
10.7606934758767
36.68539421004387
35.48374023187841
45.07051579646699
1.288216046449554
4.64306775966219
5.837519852411008
7.14195647848724
7.838773449118587
9.153676110616772
9.804200076739606
11.01544428151856
11.34003664586549
12.31517418795239
11.81478485688316
11.29243968775949
10.32987470103854
9.880362412325505
9.983846551889117
10.33052392143661
10.82034505792983
11.41558409465232
12.16397131327999
12.99623593750243
13.92744234525928
14.86014872338756
15.45120158998296
13.72235897847384
18.1858595044343
1.089276770889578
5.839696143195885
8.060429916796098
11.7088759311341
12.80447410350782
14.94208683195501
15.59694952816653
16.7171742208346
16.97582543006081
18.46619934385687
18.2790638209889
18.89356003636855
17.85276746592159
16.64240131759382
15.72074075826268
14.37553244106632
13.0427511488103
12.37291831529402
12.03850390915488
12.05012527194746
11.93924511643437
10.40591741649826
10.80401709172785
37.33171043403446
36.37320547604985
44.80952562658969
1.279516146842528
5.096169429263912
5.505776497167532
7.308800096579994
8.015837432663558
9.337914580648388
9.956406061393302
11.12712665972108
11.55280215849687
12.5933716205008
12.64984013916949
12.80730220814619
11.78671703872591
10.97077137307478
10.52174436884311
10.65442351971962
11.09592268554352
11.65285948090448
12.38874152716243
13.20175637805825
14.12807110029963
15.08688100143787
16.06814139906466
16.68330041119937
15.35549062287256
19.28246618204241
1.542101974436743
4.060147351798501
6.512529692377304
10.06372326451496
11.54160558128197
15.10546664959366
15.28710024785184
17.03941374028447
16.86793814982809
17.81112562901999
17.73714806058969
18.481875959871
17.65189042879693
16.46935103177201
15.55745631667066
14.25957124139518
12.97002656376284
12.36688738586915
12.05487864460392
12.24694608942993
12.58830816349108
12.73451888214923
11.0981648224571
11.03783639560779
38.80516852631634
37.22654410069807
44.18938832038635
1.314099945881218
4.989818469086484
5.750756852591586
7.059377683422955
8.115549885188775
9.463130026095813
10.10818927822563
11.23289448978186
11.72301416529602
12.74843414349382
12.95798742282791
13.69362039261217
13.18735235141726
12.47919299170883
11.62105800199219
11.18060766276073
11.442496384961
11.92743961442065
12.63461999736688
13.42767230848948
14.34434545285702
15.2966178240525
16.33206163794535
17.35047892957514
17.94264902561193
17.03371171268023
20.75832666643986
2.927963466034007
5.457780830714907
6.15378013529563
8.726187102169032
10.42243305428447
13.46255627272233
14.42067757608103
16.83292590338627
16.69208111316649
17.6256123559312
16.9564693715991
17.72069664243874
17.37654853855374
16.23945700478915
15.3811407680573
14.13799432881727
12.87962901277116
12.30357168694604
12.0614575694527
12.28579738218085
12.76861648263717
13.48643110393315
13.84331849710758
12.17655361953556
11.58048928594249
40.15790048743333
37.67774751245537
43.23782382634865
1.312946814113379
4.907376595467363
5.730486898999601
7.216640565656586
7.87693249212147
9.547969784109537
10.15866706427481
11.43413448932022
11.81382184792796
12.89596757216694
13.1512188173002
14.0305826524974
14.03919460242343
14.00848089378415
13.1029546694167
12.27078399183333
11.99282773088586
12.27523822617033
12.91844746043907
13.67460710354154
14.57761638166076
15.52081449358349
16.56051699905078
17.64573995274756
18.71047241243699
19.24040705212981
18.76505143320678
22.5284775689576
3.740197715261145
11.40394606935725
7.648695670423272
9.239801790712946
9.879671604384852
12.32617543522433
13.18587217465942
15.91459810692007
15.98888998397558
17.35470466425704
16.64020797148923
16.7865732809432
16.88417407052037
15.92590288546029
15.15784981366432
14.00854734351287
12.78071881060666
12.23138688077521
12.01339136554845
12.29547877221027
12.80796256057694
13.6828449362141
14.65601495604378
15.23981620946983
13.63413639554586
12.46905297605521
43.85059317309135
38.50908306959508
42.30526694670459
1.313151579082413
4.775495551972936
5.747806223977117
7.220552232501331
7.950614248028617
9.529143279954347
10.14036888276329
11.5126428022226
11.94144292987906
13.03454773140992
13.32095456150524
14.19651519909626
14.37647011950864
14.95433966530393
14.52009277494724
13.75661785261073
13.08030404623794
12.82774370240773
13.27722171327781
13.95849344555107
14.83263287060548
15.7566141153294
16.79963111662886
17.89549908654345
19.03675704945063
20.12387572388764
20.60676876289775
20.62032542929234
24.42772709667639
0.9979733984077407
18.96494587457298
10.49525977252455
11.47103570659103
10.07702688425213
11.98105227147627
12.39671116569537
14.16373649626469
14.82746953243765
16.57144767533136
16.40501351536917
16.27642870638831
16.23704714530419
15.40413050427176
14.84638345566419
13.84334161263231
12.67492410271377
12.14823381900861
11.95213145869407
12.25310557901386
12.81722994984361
13.73066096256523
14.87382619520877
16.12010822888163
16.89520632023124
15.40142231043067
13.72461253692691
45.17124350497735
38.67506593017642
43.55544590779434
1.310679990549918
4.743765804972555
5.70342555129929
7.214972996639642
7.992675561990362
9.51580004222345
10.13443587601828
11.54721036372443
11.95623418323818
13.09941550596866
13.4433478064432
14.37926040375037
14.57461382842518
15.30001918351921
15.40762429958409
15.25412994070341
14.55848670830946
13.92315170362073
13.84392435887034
14.31579345891267
15.12638517967794
16.01352256618911
17.04511361891071
18.14605064557095
19.31336420176942
20.48532133401444
21.62014045273876
22.12619080831028
22.37833418754126
25.37670540192761
0.9093981700099654
6.412840003250295
9.622457720875889
15.30970242595425
10.58525695272838
12.92366947790327
12.38036405669127
13.17460508577325
14.06431935088981
15.04943822478906
15.94289085056451
15.86325119820482
15.95167564393842
14.77502058387302
14.32871256098758
13.60409672749292
12.5421115746833
12.06316036200272
11.87982363138605
12.19984978261691
12.78570410543082
13.74213662452991
14.92173672884206
16.37895613431804
17.85341663799853
18.83872199312717
17.47721252546391
15.41498965498486
50.86955197682288
37.81466298768039
41.16030974702341
33.93626170170255
1.30079352241209
4.747372466932694
5.702251547856092
7.267428875921739
8.010697796018674
9.431900189359915
10.15692410427385
11.58320158607932
11.94527879665359
13.15444229753804
13.49595283143082
14.48508523014429
14.75054287143692
15.50802847046098
15.74972317578739
16.20849488933144
15.97107784771777
15.39251640828499
14.95770719237862
14.88982078500958
15.49330134283025
16.31016206798517
17.31346257074448
18.39910425976549
19.57366592367841
20.79435881082289
22.03394035460551
23.28921564707349
23.58008276978141
24.45611254766754
25.98381698762141
0.9203261512548488
4.898599795360456
4.39549220884023
9.31440655045113
10.0461992786278
13.940893625698
12.23129686904377
13.02705213212487
13.3978741810432
13.94794805302409
15.18080628920676
15.2355573176352
15.63074245048425
14.49476319593814
13.70183901867585
13.21534455080065
12.3455145221953
11.95484016352184
11.81229433966442
12.14115988971331
12.73379784850325
13.71306116216338
14.92920252339888
16.43163677342124
18.16020882162182
19.9008045578451
21.10757246690535
19.8970567338346
17.43832199021406
44.90254625322463
53.86620700035189
41.20857254183115
36.15805133617096
1.329913971162507
4.659241489634462
5.687170911397694
7.3336638527169
8.065288316346489
9.481689962838422
10.11505660394836
11.58837604596545
12.01661131226685
13.19432384216487
13.53897733964338
14.57190205661373
14.87125631292023
15.68058235531986
15.9637466732284
16.57083104030563
16.88655145974358
16.82383552767577
16.4378575758837
16.01842585964427
16.08680134823771
16.68291077714026
17.62276613343596
18.67621169772511
19.8336190170055
21.06456910061778
22.38601978672347
23.7646886633705
24.9125476836707
25.84592975355386
25.56857776799365
27.73058892589987
1.010456489416948
4.072347194984714
4.23817141737933
5.328939346982206
6.976079067277805
11.97970744537581
12.03587586780096
13.57081375525696
13.18846754650386
13.25357437470474
14.13314051435185
14.1804539948977
14.96639635477403
14.27919205107907
13.36610547664458
12.73173393806495
12.01278948009799
11.79895076698351
11.72227178200628
12.08544698681712
12.68076824115102
13.6647840690974
14.89764221225115
16.43653434321092
18.22551064614725
20.27330732940996
22.33901338673419
23.68079591254407
22.63217810538378
19.98867167376064
54.15768990565911
27.13857321910128
51.02195364432843
42.24487758318094
42.1466295999668
32.5025349877376
39.18289200967858
1.319982165605254
4.801902010636574
5.647978036995141
7.229260990443557
8.113474352848467
9.60567228027306
10.1685249750968
11.55722963120504
12.06287543362152
13.26804495175985
13.56484632256443
14.64574530926951
14.95736902019184
15.82838320112021
16.14207141899024
16.78620395464096
17.23720406049313
17.83258888802255
17.80909956147002
17.48439772072965
17.23457294640983
17.29367596663799
18.01669417766643
18.99388387705026
20.11681924734021
21.33597829468264
22.67741098947934
24.16667928803561
25.46982823857795
27.70766496151716
28.17912883943363
28.07715091165363
28.46292001506177
1.110679841692688
4.261289685870625
4.381727835909416
5.210615385935521
5.419271628201206
7.83295039985273
9.735600502390662
13.70616647657149
12.73732942005233
13.19585082231671
13.2340367193509
13.39578592119801
13.7679305013417
13.89095884846518
13.1088631461229
12.51411396202588
11.6062623980658
11.54116962062389
11.58844488799427
12.01053932685023
12.63428925099919
13.61774431021631
14.84783855232106
16.39789225119407
18.22669119230011
20.36242940389825
22.79290888157809
25.09529994740502
26.61940582207131
25.20874918752342
21.22439557383769
24.72639076151593
46.95690667126726
27.22795394865498
62.72466612801081
39.07231129064997
45.62604115815973
34.26374406238968
38.03230151723933
1.438239492811659
4.848270637341825
5.745701288373657
7.180051593996816
8.094348895168574
9.552799974714432
10.25685472896371
11.59589393005664
12.06006022230929
13.3109081363467
13.6501933036208
14.72199611904728
15.03239549903673
15.95454632913755
16.28895432229925
16.98472489784709
17.45406372307002
18.20105949055642
18.75406706374347
18.90216766248348
18.72313609472827
18.47009891174875
18.65407596048152
19.40453302855892
20.44452339221483
21.6305263758091
22.96978023698951
24.48832281327054
25.93758276679787
28.37497700895173
28.56982937971882
29.25202844374479
29.56039549549951
28.77209862996559
29.64033889128237
1.089486669561744
4.661865660139318
4.616339228714168
5.692897578952792
5.465897032360174
6.670976107550352
7.60561640903848
11.24724572316466
12.44149835803668
13.57794418617564
12.73524121837935
12.85438581359301
12.73823989702089
13.20747619547058
12.68685680539147
12.35547044478844
11.45270991680253
11.25810958894592
11.37834485288583
11.89851868249
12.56956642642772
13.57483453170631
14.80188089209098
16.34539517593992
18.1801650627133
20.36090067190295
22.91498160654028
25.63767049944646
28.40953460751485
30.02491844417159
29.79381121355428
26.81367291055021
28.05432248804162
56.19786313545026
29.40632585970884
30.6682434866883
59.7411643584072
44.68243801689299
43.56788500849024
40.87147894083012
32.91797229055165
36.95545452346568
1.678520306734701
4.75241285817821
5.804405416292965
7.236440151964816
8.06416565244532
9.648812982078674
10.25610951952841
11.66543619666045
12.10900868767162
13.35524371892722
13.70924472664742
14.77295403372073
15.0955334949914
16.04809536003518
16.41481419886165
17.14741779217531
17.65985901755808
18.41937548861684
19.13288149005161
19.88943355380307
20.11868637626371
19.97503269021968
19.8447006888238
20.05995401032573
20.87430378616472
21.97546387089659
23.28758230965776
24.80796769166001
26.30039731292311
28.99239596003631
29.75950143490752
30.42549873630655
30.6528815639085
30.62956181030507
30.21497118908973
30.01046989866998
1.186153694986429
4.770796996079841
4.913004704657071
5.967129154635376
5.985204882134952
6.959164074295892
6.674600723380767
8.767698126820108
10.36300295552346
13.58160154290929
12.87982931311588
12.97035523085068
12.1158395934582
12.36206187260115
11.93328446372646
12.05355930862149
11.43810478917
11.16890096647889
11.17931194092223
11.71731609321069
12.46905100172372
13.51393229951316
14.75879929726153
16.29616426623802
18.12204316751464
20.30751800496181
22.90951058862544
25.79388304594887
29.15534428242715
32.52383563033661
31.42917672562465
33.05827669455614
30.84821101927744
29.79855924655189
29.22343661411281
39.75816299849474
28.67715067390545
34.48355413132909
65.37552879885
46.25196396815111
38.56705548499536
39.88492336810504
36.15267852140988
38.45635576340234
1.294465635104764
5.040377005030175
5.869414508551033
7.151975819578366
8.090721906207452
9.613012695404668
10.33450550932485
11.69267304234566
12.165270105385
13.38532906160023
13.75442450268175
14.84997054953059
15.16835129506395
16.12008685773549
16.51782684222933
17.27736423010206
17.82810283074686
18.63310419966919
19.35480863584813
20.31858901994472
21.05427686851719
21.40492919387725
21.40917074641939
21.25954619640097
21.56546118746095
22.43034624721588
23.6612602934838
25.15170829433417
26.65107583382889
29.39916573725689
30.32278836335054
30.83017993916898
30.78797566361902
30.97807698919366
31.19290389319062
31.07909558179584
30.64116609603059
31.21288864970776
31.19262853017007
1.223132275591156
4.610644352471123
5.023555407466793
6.202321358030567
6.309665312376347
7.369066513885862
6.809060010422429
7.787772885320651
8.70792052761777
11.44252509051311
12.72994220203764
13.30280854059376
12.07359823636873
11.97593272161661
11.25357383823658
11.46054914172325
11.29903121050683
11.31307851343796
11.16994971685425
11.54177720474078
12.32031857667343
13.41698974751752
14.69567743744819
16.24851879839094
18.06927283541202
20.24527383674337
22.84714634196675
25.79327960809699
29.37669994398976
33.35910621748445
34.83633479135162
34.73818302991571
35.07873845373427
33.64087891550808
33.36901486417516
32.60464268843887
38.49799374545128
35.85178944196948
34.24245788603071
47.59016438425007
52.91700722009434
43.13956624918748
42.72453546446351
39.50318775408206
34.54793816653522
1.332305428302762
4.7663126256597
5.988441265956416
7.115102539251233
8.058418690772104
9.554656303193719
10.339661918354
11.71222121291102
12.20466506893567
13.43593645632982
13.8059302426945
14.86652569879637
15.23539512306227
16.18312859377738
16.59441400275284
17.39021553409342
17.9635925103848
18.80720688983555
19.5751733948269
20.54545573596425
21.51233138515117
22.36589609982752
22.84085928464442
22.88159437701353
22.84040149881575
23.15980811715502
24.15281792435337
25.55718753823215
27.02563944996675
30.02050036876094
30.11864025337239
30.58379903601802
31.35478695809629
31.44904346637598
31.40639646272066
31.66641963413675
31.69176515702356
31.58191450073003
31.61189857001558
32.17267919864303
31.431048698703
1.256211074575142
4.743864941968182
5.094215186512006
6.204694214093546
6.536511684456111
7.726368095043095
7.315142237465007
7.97177871016966
7.725125329240845
9.481140767037369
10.99716663679636
13.3363872393754
12.46902301427861
12.07976062337802
10.92617159264032
10.9006671998049
10.89542327090971
11.29851556854176
11.42312389271779
11.66765605971814
12.21347529535749
13.2778161315912
14.59748937335024
16.17616170790137
18.01472918476449
20.18943209375595
22.78383104640318
25.73331306585823
29.38323148209915
33.84896019214298
34.69513070218179
34.90378901818104
36.29009435888732
36.06861084277763
36.42561171538464
35.8239374547091
34.97514645294999
34.95544185528343
39.7080305084899
40.33383866672747
34.87881430704897
43.95911068646134
52.09914272303456
42.69188992640957
42.03140142045307
41.26378870049049
35.44587345413226
1.347025602416856
4.642624137180864
5.717915631504926
7.252108461040454
8.065294208217082
9.526389118751313
10.31102578884764
11.71549168770067
12.24232356766132
13.47806023812127
13.84269842429687
14.9532622665298
15.26332284053754
16.23943263188055
16.66854029761366
17.47803925258387
18.08373986926216
18.94892945460058
19.75411294943902
20.77484172524843
21.74879959906713
22.88888397799506
23.76395825298946
24.32395255122453
24.49664501063245
24.5052314966758
24.92936489614042
26.08058695348619
27.47919595228558
30.24169215232826
31.15174594251859
31.30693509384342
31.45759822038551
31.81179677176998
31.85034002444847
31.83847628183211
32.13694047194231
32.07511525127483
32.15918895654753
32.35103925535093
31.4454949070924
32.61644773641834
32.73724426981664
1.268459781907139
4.775682057725625
5.218716374530245
6.270699715564771
6.730643129173062
7.813701662082207
7.707559630040808
8.526653476531118
7.690683250664698
8.450043563260181
9.333211408015407
11.32417642584451
12.37479028572409
12.38801344276134
11.08524367011518
10.67311618185811
10.46528829053238
10.97798082870009
11.49828868758973
11.96259047083458
12.41869693285941
13.19116274032641
14.46259110748714
16.07006887784782
17.93380622766044
20.12534845013877
22.72533352600265
25.6727140633764
29.30240845315932
33.66729341306711
34.96221053386284
36.46816966666033
36.27992606658378
37.62950236999754
37.74098027748683
37.67443638522316
37.23819372460282
36.87499174357473
37.30820405522326
40.58760769452842
43.37234444210802
37.01257377873068
35.83217328156374
45.50468938114157
50.36710340709135
45.45915479487152
44.92273115788198
41.33990531605481
41.19925424624542
39.54435697058898
1.32945905864012
4.730513497421659
5.688943135977451
7.110251459779786
8.148966537124227
9.487488905683673
10.32201907925089
11.67439960043622
12.26883167991048
13.49412851589597
13.88796902428839
14.97585947255883
15.34174791552469
16.26337128003094
16.72487189567839
17.55246810395878
18.17538572672051
19.07435083376578
19.90144024646963
20.96249639599911
21.98358262449705
23.14556669646477
24.26931736520156
25.27831310058485
25.96062661746951
26.18794321697819
26.34755221476302
26.89957174515386
28.0667193146788
30.99353552562432
31.53619747866572
32.03240443570977
32.28243306492886
32.34178801232451
32.40821759208885
32.51127560514232
32.72198887252832
32.56223865072015