/*--------------------------------*- C++ -*----------------------------------*\
| =========                 |                                                 |
| \\      /  F ield         | OpenFOAM: The Open Source CFD Toolbox           |
|  \\    /   O peration     | Version:  v1912                                 |
|   \\  /    A nd           | Website:  www.openfoam.com                      |
|    \\/     M anipulation  |                                                 |
\*---------------------------------------------------------------------------*/
FoamFile
{
    version     2.0;
    format      ascii;
    class       volScalarField;
    location    "7000";
    object      Ma;
}
// * * * * * * * * * * * * * * * * * * * * * * * * * * * * * * * * * * * * * //

dimensions      [0 0 0 0 0 0 0];


internalField   nonuniform List<scalar> 
18230
(
0.2221996046785875
0.2437599851517527
0.1006414399666325
0.1966514931338127
2.265028382171434
0.3430815400063918
0.1526951993692545
0.0631163108401868
0.17881893861142
1.749009092288895
2.329087801588044
0.3883752689622487
1.568144036856269
0.1248001570630658
0.03472791629678983
0.1573223632027079
1.558594973935484
1.78025698665661
2.321756248423694
0.4506153340506553
1.946733687356914
1.401315444848057
0.0985303236414513
0.008812553368844867
0.1376864276080498
1.548395100967613
1.603455068365055
1.767364914114956
2.316344198866933
0.5029589728687406
1.285656053534974
1.921165804491739
1.333946526277368
0.06506573555971729
0.01568693989083996
0.1163846727573997
1.536350457419513
1.597243879894018
1.600989064021547
1.770354620860303
2.307044244674223
0.5508708081886654
1.040746928995479
1.274973597738665
1.911508094054739
1.28577177884566
0.05386303255411292
0.03632844739305846
0.09495675368776046
1.516155911179535
1.583052527161055
1.58093814331802
1.613535230829184
1.76294267722256
2.293922050136457
0.592882782694289
1.033196366310131
1.066391928502694
1.267276251549196
1.91587385051517
1.268406667589288
0.04391743136621944
0.05289306663239474
0.07118906984168812
1.493655691310372
1.563217791792698
1.567222575589366
1.596142425777
1.609302844710027
1.761240491412824
2.278232838918749
0.6371284518180005
1.010474691937923
1.04303881663226
1.065350102587244
1.27170510586981
1.9061778833598
1.261839943694766
0.03995425212906949
0.06637126109398833
0.04184689974072221
1.470812345818648
1.541200153850921
1.548060002824964
1.582804880929062
1.591537207706011
1.614975519548852
1.751520663607337
2.261166714823679
0.6880029088943819
1.006029688556187
1.025241601220169
1.037010087533502
1.074883802409204
1.265898083635357
1.899331074024176
1.255266416093875
0.04630581193253694
0.07790375116835926
0.01227919037240669
1.443926687357751
1.518143199366865
1.527347278710738
1.562338863404832
1.576818887918531
1.598086192512015
1.612002881159088
1.746901310514499
2.241369691112113
0.7445936749433832
1.006675985085373
1.024338820692907
1.021065457077123
1.049641586182843
1.071976146201628
1.269881808721031
1.883726200626156
1.257598953696053
0.05980742355757648
0.09089898886491377
0.03498429139844793
1.417061401513579
1.490459960990855
1.505676433280487
1.541212729320601
1.557388992256086
1.583747564436828
1.594845071357152
1.615707030451367
1.737765918768087
2.219306882450319
0.7938455707268908
1.0107480840942
1.025458624858855
1.018612896191277
1.032511536970382
1.043585209209922
1.083828635305446
1.263481259354966
1.868057544883467
1.278398066384371
0.07714022384856695
0.09940452587206448
0.05537006224153644
1.382676868747536
1.461978443624545
1.479418869272873
1.518526517210476
1.536622459292868
1.564145201475322
1.580211938072576
1.599374881529386
1.613545572166912
1.732495554068728
2.196074578953433
0.8461070317439461
1.016600310675863
1.030133852047813
1.018876827654883
1.031405832577346
1.028168796545033
1.059095357990587
1.079709344504262
1.268227745051694
1.852190415843266
1.302664828335326
0.09952708035787144
0.1017885316215934
0.07448805655609657
1.29895790063564
1.418702865045951
1.452704643916121
1.491323636382347
1.513265797617163
1.543128744339305
1.560475632104323
1.585087340588975
1.597250521969123
1.616437368100274
1.722908586210925
2.169912753375267
0.900794277677633
1.019860186004929
1.035888107268792
1.023705362510696
1.032983286233997
1.02565505239379
1.042304934627829
1.052668486667637
1.093217616145539
1.261964100741717
1.833520551669806
1.339726318743185
0.1273807176036617
0.09582621463907424
0.09586101546388699
1.169233052518481
1.310749959079101
1.410025097824503
1.46327166032394
1.486306026061827
1.519858400387098
1.539714461216966
1.565507079720455
1.582635550195485
1.600912443534145
1.614757449278279
1.713578229032028
2.14110883805535
0.9573220350140732
1.025439784422556
1.039097342230246
1.029021442689436
1.037902152107699
1.026311608634097
1.04141498146407
1.037724757953089
1.069443028332542
1.090587420630282
1.264004330624499
1.812454442341396
1.38006688205482
0.1587844537531521
0.0855585103940172
0.1263107577273034
1.000783036390935
1.178500106444233
1.304504380152412
1.420431896413223
1.458220146703088
1.493007563500757
1.515911445224163
1.544707195115878
1.562892365474746
1.586502597614957
1.599312790126431
1.616735432106929
1.702427605408033
2.110942889833278
1.021377561976965
1.033299722435308
1.046414452727518
1.030428721632519
1.043366606642652
1.030942046367664
1.04282688737081
1.035469581323923
1.053080762600137
1.06415063598211
1.103355420431528
1.258463810632256
1.790309611313575
1.420904789732153
0.1987061940756865
0.07139787149133905
0.1592868936153764
0.897315083514415
1.000913719525071
1.172531780005817
1.311830168795141
1.415026546399575
1.465021468724315
1.488984600439276
1.521407678728049
1.54202797665102
1.566932552260309
1.584776703246636
1.602007186325913
1.615301043613375
1.691773952501341
2.078508694619316
1.093143656304255
1.045252750211382
1.055487302333486
1.037151431075975
1.047093145346758
1.036127146492349
1.047798836926886
1.035992515288766
1.052500910909607
1.049894330018717
1.080557012914402
1.103064793395542
1.257486625595121
1.766245554233007
1.472370318808978
0.2528882110001559
0.05152978901904964
0.1907065313401611
0.8540881838272523
0.9132831090054744
0.9934520865843498
1.180524737382565
1.305804454832042
1.422412506964356
1.46084406453882
1.494857495755226
1.51851867619094
1.546251858089301
1.564963616150157
1.587528360103521
1.600744693198761
1.61614357004876
1.6809894166476
2.046651780146624
1.168351477852341
1.06801701932452
1.071823953406503
1.045359016647829
1.053291100154462
1.038290896287117
1.053114302970197
1.041441139120964
1.053712845020207
1.047707268247158
1.065022285942769
1.078304349593455
1.113337315071001
1.254205171986343
1.74308067683422
1.546144994778294
0.324505965389268
0.02260127119942211
0.2196260068807543
0.8269662941478861
0.8749094959511948
0.8996277265939486
1.003862182767519
1.173607824517711
1.314135590692179
1.416811400962226
1.467006062928396
1.49168013914718
1.523053670607452
1.544167971397016
1.567871301030393
1.586048309758857
1.60233823763766
1.614888006588926
1.671119266753417
2.014953574615011
1.24638322576301
1.051721629550225
1.091283445915687
1.061602572771453
1.062897302446736
1.045484792900749
1.056640276987362
1.046182481587557
1.058490188202315
1.048608200540208
1.064251882733441
1.064836965779236
1.09051190599896
1.116984513682043
1.250081460545572
1.720142565853322
1.626870450738531
0.4184737991289967
0.009234688275141487
0.250760754388867
0.8028843216486699
0.8463337245650255
0.8592859502297041
0.9168399778792529
0.9938036149957397
1.183850883293602
1.3082455777145
1.424311098763324
1.463539494139978
1.496794093925413
1.520833128107361
1.547265622851014
1.566245612625968
1.587476722737625
1.601368958977838
1.614773711460949
1.66158651328038
1.98048135063098
1.321758845894608
1.021044603869252
1.073133947000993
1.083704071943699
1.079424364782392
1.055190297552252
1.063018122994255
1.049074799169524
1.063608173744144
1.053997275965604
1.065275525273812
1.062824202791729
1.075947731742865
1.09439133816333
1.121715104443547
1.245138507886849
1.698447234785984
1.700553178934417
0.5314853890067253
0.0372917061487844
0.2906394606046618
0.7810547665577561
0.818911916196399
0.8339301846949289
0.8780625283490551
0.902930933319678
1.008445912222047
1.174731193092788
1.316889504313353
1.419517472208242
1.46903952015776
1.494315496903701
1.524213041851651
1.545470809979278
1.567859730114477
1.586071929650424
1.601892533067052
1.613548781618257
1.652953843415574
1.943495956875766
1.389181735958958
0.9976108881331287
1.035049303968069
1.066120477431916
1.098052293842745
1.071892648524358
1.072497426426167
1.056876687621564
1.06704759993652
1.058642415574252
1.070026232875742
1.064230350662838
1.075462179183317
1.080498212945561
1.100169838954569
1.125439944669968
1.242191851912047
1.668931837503674
1.757723547126828
0.6496934402553924
0.07133973426317201
0.340181744697416
0.7598084158900034
0.7944335622973683
0.809710134714998
0.8497290190750392
0.8636448565794431
0.9215015366779775
0.9963938905568567
1.187250354186396
1.310864376117482
1.426193107028772
1.466216387854703
1.498246122467733
1.522325990218797
1.547266950113376
1.566417336219551
1.586243202220532
1.600792089360335
1.612415760172919
1.64439184635701
1.906875205198054
1.439323091366359
1.017539006725215
1.016125484449608
1.029596975842631
1.079635734857854
1.092154604385156
1.088230881811759
1.065821199619431
1.073645851073468
1.061844244151142
1.07479790963398
1.069314847428199
1.076512961294703
1.080203684877745
1.086703153582204
1.104017610323885
1.130706773794504
1.235616508776085
1.626157669631693
1.780484582708057
0.7584181171277415
0.1157670670718264
0.3948359433559247
0.7354695857903276
0.7731724300508239
0.7860611618921841
0.8225086422592336
0.8384665013129629
0.8824245627456908
0.9083523400272585
1.012942127932261
1.178644544999806
1.319399197502822
1.422070885815964
1.470578285955732
1.496331561811474
1.524336708345912
1.545719481486197
1.566778701538998
1.584473009135612
1.600039764862709
1.61003319782626
1.636720317675059
1.871534832055255
1.470129988729321
1.05310431120924
1.048646533791765
1.007205695407744
1.042247118383028
1.075199419511852
1.106462188934331
1.082694565957147
1.082714467999296
1.069337787832621
1.078085723785424
1.074436854661116
1.081298425045489
1.081835706163941
1.086658733385369
1.091218710113056
1.11189367315141
1.131470348665478
1.229493710089674
1.57123802525921
1.784005529253666
0.8478929791101453
0.1641583690031191
0.4512463836333414
0.7161765088681541
0.7515960703885823
0.7638191667965563
0.7980982605969238
0.8130135017549708
0.8539962330429005
0.8697325175686552
0.925783523767186
1.002036571239063
1.19007528902333
1.314589828387824
1.427417287384038
1.468336687409541
1.498810245841612
1.52273913192602
1.546235538276211
1.56511583218875
1.582993144913831
1.59817705123735
1.60789052409834
1.629334178708912
1.838134929525108
1.482645656437202
1.077420956799756
1.09124395882436
1.031776271515844
1.024147308508032
1.037255029386343
1.08805170691203
1.103269551537258
1.097897172406653
1.078947568906422
1.084386235367785
1.077657836765036
1.086016834485844
1.086733467798
1.088088013024934
1.0913224672702
1.099592032387022
1.112709851720199
1.133397473795964
1.221591642779968
1.517680362799181
1.777356125796754
0.919326496674203
0.2155365577518906
0.50893448756547
0.6957729177497938
0.7331328282989539
0.7409643362353131
0.7765650301363485
0.7886105085017703
0.8272399351533797
0.8429105690257523
0.8865961047601167
0.9143554455077414
1.016756607773007
1.183105178294647
1.321003438193048
1.423875740776043
1.471181001787043
1.497266183011823
1.523558542244107
1.544511746638324
1.563895882564402
1.580097732445644
1.595782742948579
1.604761599680439
1.622736827597712
1.806890386329775
1.476491361027532
1.047772385486247
1.112017123997947
1.076933207285103
1.057541158974419
1.017216410125088
1.052402571808091
1.08525678815863
1.116265505663607
1.096020842971439
1.093157038995882
1.0851559206195
1.088795098669086
1.091620348307605
1.093109926799727
1.092598830945622
1.100269829160516
1.101895976839934
1.116515027426072
1.132996870598094
1.213926582161139
1.470595010923861
1.762209442625538
0.9722617571680481
0.2675079283480284
0.5646287566389606
0.6780576188008172
0.7152787990086308
0.7205691901123534
0.7550744539171538
0.7665097838735673
0.803146504760357
0.8175520558961977
0.858520757427079
0.8756217911273507
0.9297579965989674
1.007566030229454
1.191835037374228
1.317072318375652
1.427478907634054
1.469324325191797
1.498560359521201
1.521932343475989
1.543448747104391
1.561152608082259
1.576960403013633
1.591750125130835
1.601258051500693
1.616103123005829
1.778960514353561
1.453204788028711
0.9849426028842718
1.071975268285247
1.100616785969154
1.099299939335986
1.046597708090807
1.035081238000131
1.049550304154162
1.098401199920624
1.116034325512121
1.108662208857476
1.094560845789345
1.095306809681647
1.094692567901544
1.097933229956402
1.097611017598237
1.101326747542747
1.101903177952866
1.106153600811475
1.1165542300059
1.132991199668053
1.205146959398486
1.431910092754352
1.741203406331084
1.00774661044276
0.3225764777878011
0.6156283620667756
0.6626737345404778
0.6989689285778012
0.7015096251092809
0.7372311637723726
0.7442579434712546
0.7817082282483021
0.7936366841213371
0.8320306446398363
0.8489056318154755
0.890598662218015
0.9207692104521403
1.019595671860151
1.186026110228533
1.321473805943335
1.424357350034751
1.470949451098784
1.497087468061118
1.521240157863385
1.540754971551425
1.558236919968566
1.572232694492691
1.587074667367933
1.596386813589348
1.609985161823154
1.752967153028884
1.423789883926805
0.9453174314357721
1.008950469040037
1.063048526175186
1.119435540061082
1.092933002837055
1.068825935603735
1.03075840133758
1.063996084034507
1.09894983322581
1.127231241808152
1.111811696935149
1.103903433924122
1.101484207012963
1.101075023780256
1.102183730337153
1.106395621084424
1.1034691143904
1.107129810725541
1.107687748966569
1.118003390852855
1.131757092951023
1.197160399066326
1.398618999923251
1.716021234850353
1.029474020967393
0.3747967258564183
0.6649635546245356
0.6475990220141631
0.6826653399032735
0.6853503173209663
0.7189636529899617
0.7251660709310999
0.7602650756856195
0.7717871399817116
0.8081022640469986
0.8232448909814503
0.8628499637108463
0.8819765633584166
0.9331315117567845
1.012651089407354
1.192291606620804
1.318257884268813
1.426722173569277
1.469195629988408
1.497002911061477
1.518761873151643
1.538090765506315
1.553659340271542
1.567190983678721
1.580599068839621
1.590920944331726
1.603604317411011
1.729559153397684
1.386294663484602
1.099851123194193
0.9779329822243482
0.9873220100754412
1.077757892263109
1.114768969824565
1.109077542725291
1.06401204408012
1.046655486304074
1.064683821689109
1.109557175176735
1.131440169758067
1.119430067694302
1.110485923160642
1.107861621653515
1.105197870496689
1.110868338169728
1.108474949217732
1.108327523793377
1.108221106153953
1.109899289665821
1.117656669707786
1.13072689499073
1.18932474836433
1.369935655723195
1.688785626542084
1.040394909674216
0.4269992435630784
0.7136879739124861
0.6331926307359466
0.6667829854099789
0.669997238542437
0.7027143898105546
0.7059111665097153
0.7428367794476619
0.7496011828952079
0.7868947788506022
0.7990684123432871
0.8368674984854622
0.8550410050874689
0.8943262451406306
0.9264452349855525
1.021576960163034
1.187497435219137
1.320901846684389
1.423092346693277
1.469335071847472
1.49477294087226
1.516576381857827
1.533732818671865
1.548891816295469
1.560491386433347
1.573606067167407
1.584197035029841
1.596725335002329
1.709082740162375
1.345058388523008
1.331149590671199
1.165259189246424
0.9448237909434875
1.014455611744205
1.073816343837104
1.128745185675359
1.109466041501791
1.079035816592646
1.047478257382661
1.075015604632502
1.114890394020194
1.137380984612929
1.126349960781214
1.11701838835272
1.111714077125708
1.113893769428185
1.112834262920706
1.113546994948336
1.10982342193874
1.111522809201887
1.110993573841349
1.118028779083027
1.129071794954346
1.182505970784711
1.344822729046857
1.659069060614569
1.041067833569952
0.4745193254527866
0.7594459149484963
0.6195229316203257
0.6523830266572361
0.654620700525223
0.6864637815902956
0.6898525660715782
0.7242810100484891
0.7308029554037411
0.7656569291636272
0.7777423717407335
0.8129828453989627
0.8291852247880089
0.8668377300019298
0.8879461771210876
0.9358097253313907
1.016330283525651
1.191747185697825
1.318007666295905
1.42374748967292
1.466756187665876
1.493146634148389
1.512641664012754
1.529382722391736
1.542421819328407
1.553679012960324
1.564272149505381
1.576403738884792
1.58868898658411
1.690738101041498
1.312470218164342
1.4460392947339
1.399632345820618
1.109443596215528
0.9832588895054862
0.9987397993583226
1.087825526816904
1.130211090585564
1.118659476982135
1.082443854267959
1.057096423756192
1.080751024595508
1.119715566336838
1.144159771997902
1.133286106533222
1.120486836806492
1.120376642107158
1.115869249712426
1.117693119370195
1.115018125434802
1.112694100225024
1.112493205493257
1.112539008764638
1.117678968689827
1.127840931090262
1.176303806075258
1.32325892588678
1.623749427279587
1.038527275755782
0.517646385821998
0.8211515693554866
0.6067229150572717
0.6383503126041074
0.6397143570184015
0.670603280884087
0.6745232187336125
0.7073871967773898
0.7121426134271803
0.7481042087512088
0.7558908491771059
0.7918211734859573
0.8053234772017127
0.8410451469043819
0.8607017435504624
0.8972635035944831
0.9311881885123715
1.022595468499031
1.187274219783552
1.318673676621037
1.419772413353041
1.465251503074128
1.489573805198189
1.508897208726974
1.523353270796031
1.535927178345833
1.545047390320589
1.55460966299416
1.566970411966951
1.579578180950566
1.672748990735085
1.32561564885691
1.419350244103593
1.495232393536099
1.370051169386258
1.172164575790651
0.9592198926824737
1.026753078491691
1.088325304006841
1.13828625821074
1.123887348939034
1.087841290235735
1.06322482021892
1.085561767989597
1.126304145167146
1.151439712968666
1.13602423562216
1.129120909849761
1.122368908998494
1.120745291587282
1.119017646152981
1.118181004533801
1.113956804081902
1.114128027654943
1.113430408085643
1.117959247918706
1.126549026292673
1.171143333012563
1.305108369018665
1.577703350612933
1.064679746960739
0.5429093508119751
0.7135383895119249
1.108422539297722
0.5945662603796039
0.6250114885230582
0.6257438597148907
0.6563573160962018
0.6587669839204904
0.6912024719706216
0.6957475324342529
0.7290286024543365
0.7372864278930406
0.7704300436447414
0.7838115697321306
0.8171717977574854
0.8350293942556598
0.8699631682617391
0.8927497144197876
0.9376509865483271
1.018361226519958
1.189750980803295
1.315578455111616
1.418633016410744
1.461462793753278
1.486278927628446
1.503441648931622
1.517435015762768
1.527453109870338
1.535820535666345
1.543702841788237
1.556666347528573
1.570256277369186
1.663956543564986
1.516104041775556
1.361326028974971
1.459052720803078
1.475463091824541
1.407672484186938
1.138660739058789
0.995045236704398
1.015503072540633
1.099616731168268
1.142609380828402
1.129325584035419
1.094407236548551
1.06872464431539
1.091207172231007
1.134476052929648
1.15306451427172
1.144569898782748
1.131063483208424
1.12722088195168
1.122074493880858
1.121952036450936
1.119351639236316
1.11634822240161
1.11505506851339
1.115082676558102
1.118229170233225
1.125803281150068
1.166778025946362
1.290705384945348
1.523349789546648
1.105622900372109
0.7210393919966887
0.7066903706251493
1.089769363316916
0.5825903208154622
0.6120683072131805
0.6129629413430384
0.6422575554741654
0.6438806835251397
0.6753234222304784
0.679786665937921
0.7122364099970814
0.7186088390556516
0.7525450391062138
0.7621178372909349
0.7960299150972636
0.8110294831437165
0.844246842632529
0.8655859437801406
0.8993713504240536
0.9340134508358544
1.022969178031689
1.185153783539126
1.314460111196188
1.413647292591667
1.458120259274603
1.481122825649817
1.498099420124849
1.50952069190617
1.518600735022003
1.525173089258391
1.532787026941773
1.545676189262341
1.554958286573771
1.61735369198786
1.542177003037939
1.313900174966846
1.390248146162484
1.434390414485758
1.499288277226362
1.391336690625816
1.180840666822881
0.9799357642866693
1.038612688907661
1.099380920990015
1.150329036308663
1.133926586280566
1.102627025652193
1.073537207014573
1.100583771203892
1.135445416820203
1.161331829538478
1.146489660850829
1.135916199394341
1.128589717537265
1.125087838692548
1.122961591387224
1.121419080880336
1.117907958150894
1.116562926620687
1.116479040092732
1.119038702227457
1.125276419417032
1.163861029568215
1.279112398590708
1.510717629580665
1.129651202053275
1.216442664574307
0.6610375812675138
0.6416560943840265
0.936336968333472
1.275001951215545
1.075843557126487
0.5710238638898142
0.5995257824015834
0.6004649022439739
0.6286816043727428
0.6304939789537841
0.6610850800264901
0.6639675141587398
0.6961749371981758
0.7020587518119092
0.7333033949211349
0.7435612113110415
0.7744688742891163
0.7896161601820979
0.8204366885479013
0.8398842957273627
0.8721366112329678
0.8958351605790666
0.9389219804534391
1.019290241749219
1.185595948971588
1.310191260597705
1.410111250408628
1.45278001707573
1.475996760740023
1.490595980246372
1.501099840737098
1.508087774379572
1.51439914263651
1.520747513761524
1.527735480760791
1.539068939281916
1.58535623670991
1.575219319975819
1.284009124298627
1.342170515481616
1.369893500124328
1.461577462089406
1.486028264940826
1.414905279288421
1.161126848268228
1.006172751968379
1.029974417543678
1.113250908354085
1.152133786767602
1.144045089529119
1.102976328206745
1.083865677806842
1.100942394075499
1.143712742964996
1.162560237254654
1.151190840955213
1.13717194951268
1.131630410463034
1.126129272289754
1.124931735014581
1.122643970255404
1.120277919229833
1.118116084839468
1.117991536226281
1.119869554272344
1.126049768692807
1.161755009656211
1.281350786948995
1.517973712675059
1.339763183917481
1.118925553947091
1.169608068729276
0.8404428048067587
0.6275494353823698
0.9508061884368113
1.223163460142493
1.094522552915087
0.5612911902933219
0.5865346356297866
0.5886324442061885
0.6153083945836275
0.6171705672700512
0.6467960746166053
0.6496536161170874
0.6800820444790994
0.6859819220161321
0.7167094631493781
0.7248703334608657
0.7564036426959048
0.7679288287833611
0.7992504967729785
0.8159543464669743
0.846454049077597
0.8686578645568299
0.9008972004285415
0.9359703972640617
1.022430807077363
1.180972914408897
1.307343476175032
1.403811887089992
1.447163050457598
1.468554767926078
1.482377202632674
1.490768278219365
1.497418493236455
1.502257474009652
1.504396032615574
1.530085707844402
1.506516226602224
1.535908832817297
1.587824376638819
1.580918149274841
1.258147178315913
1.311759492521652
1.3225065434031
1.395014722412799
1.440497299098249
1.505380961467063
1.403966172534009
1.187543683226082
0.9959087576755348
1.049091257725988
1.109072435309807
1.164242824574484
1.143476411673538
1.115505374426611
1.084152795419034
1.10948092580588
1.145002135773636
1.16693206580859
1.152473327492968
1.140220938339473
1.132720411163462
1.128152017226357
1.126050683063661
1.12444743000011
1.122285334267583
1.120676817641086
1.119783659664824
1.121764605746642
1.126963690688244
1.159985358545478
1.234788643646164
1.459635674636481
1.320606361856446
1.092754725034029
1.132457063885617
1.288059097922445
0.7790905346905468
0.8127090160154787
0.6465133396242352
1.070859640010951
1.413957092455407
1.122905730591065
0.5500110910207363
0.5743140192330826
0.5774455451636278
0.6025233514625536
0.6044334433293208
0.6333028707715009
0.6355326420531914
0.6656852954975476
0.6700022366111371
0.700592661630476
0.7082266276633971
0.7371037855622445
0.749650667586315
0.7775891657573578
0.7947251709051085
0.8226090865463788
0.8430435832420018
0.8736456721939556
0.8980916707305996
0.9397741426401174
1.019242144879045
1.179452487786547
1.301645443305044
1.395847537064785
1.439031031237546
1.460288580778423
1.471966366061041
1.480211185101509
1.484787167454037
1.485402308324417
1.487748807817499
1.513842805104652
1.493541485016428
1.525187994700086
1.573590170998453
1.576873081833897
1.231346059857578
1.282526469857608
1.293895008952932
1.34699335106695
1.377197287002532
1.468016094521563
1.496314929306226
1.42229617507564
1.176939822426226
1.015902208722985
1.042971219823751
1.123463255897313
1.16181368210384
1.154977808932962
1.115449286800892
1.093004112931123
1.110271990460542
1.148791897130419
1.16763524756203
1.155453520211261
1.141299285957453
1.134821353985804
1.129360894575201
1.127798841799675
1.126173619705533
1.124787611553809
1.123397685555432
1.123040918231473
1.123435669546909
1.131031685271705
1.172989797903914
1.145097938027146
1.250606039138636
1.320553065011978
1.46461378409008
1.078218536726973
1.07385948227684
1.308433637515384
0.8537170568700626
0.8809627562778745
0.6693528963230775
1.088723627582654
1.241552497594534
1.122582181513846
0.536396030740707
0.5633097788150137
0.5669496717746472
0.5897414168007995
0.5928458914754885
0.6198070289223357
0.6227136847579511
0.6513270427415453
0.6556224045146626
0.6844022979390525
0.6923532121206963
0.7205721485795745
0.7306586478462535
0.7593828923765702
0.7730736470407097
0.8013504144561377
0.8192016252817913
0.8479801351750643
0.8708778915219889
0.9020164227538637
0.9374138776709807
1.021086754592135
1.174281911886242
1.297169558925183
1.385624289467438
1.430044843860278
1.449390310215118
1.461094065010298
1.466329891828375
1.466912987705291
1.4687959999993
1.480233318815317
1.516610068730497
1.496388512436366
1.481128281375532
1.524570730435515
1.577401909989186
1.528225872191832
1.58086692741827
1.202974153406153
1.253522450264287
1.269401429363853
1.316671477236648
1.329659038866377
1.401752406330065
1.450868191780094
1.511364067067313
1.416350049734762
1.194691741405014
1.00974508335707
1.058350458049768
1.12033680965621
1.173098193738586
1.155045510843131
1.123308357289481
1.093785937241811
1.114116836833438
1.149338708522831
1.170121896378715
1.1565584621839
1.143414619951659
1.13613424946904
1.131216142252454
1.129430865793773
1.128446350118625
1.127262210492926
1.127102727423044
1.125172486753186
1.129491316193061
1.131266224511544
1.15865542482656
1.144850210387987
1.238771350046507
1.277592304867615
1.428209438053936
1.087252622260709
1.171345782792936
1.386801237628994
1.04008440900964
0.747853157007641
0.7812227186276702
1.04928316971416
1.106905022295827
1.355818014737328
0.5261990213626169
0.5522709191902111
0.5547102506079218
0.5778214228308689
0.5811771676701507
0.6069407338614261
0.609946003484408
0.6376179616760546
0.6415991562992804
0.6699736077042946
0.6761747119451921
0.704362877269034
0.714234021621489
0.7400809323654191
0.7548059610992341
0.7796438579029706
0.7979774307459018
0.824129062574304
0.8453038434027333
0.8747426176591148
0.8998536650627333
0.9401496382019557
1.018084555975522
1.170617655916534
1.290058327012769
1.376362588112126
1.417924946053313
1.437569813253295
1.446168272975719
1.44679026057695
1.466269701742374
1.448703167124175
1.46247244438405
1.464494730729549
1.507156401584312
1.489135882984693
1.473580141968029
1.512493514656063
1.559784255161779
1.516789522543004
1.580202807316438
1.176045598232925
1.224188150691288
1.24015891510229
1.287278583616684
1.301097465979593
1.353996981932895
1.386207049584123
1.474468078393068
1.507779876533098
1.430794093108067
1.190548540359821
1.02527250082589
1.055180900788844
1.131452564469214
1.172778737405951
1.161898656708714
1.124413377966573
1.097879192319268
1.114585702771932
1.151224941318191
1.170660144859768
1.158577328237714
1.144781438829369
1.13810509059711
1.133020962452056
1.131652051961363
1.130672556008583
1.130905303192294
1.130032421690009
1.132785685718925
1.130590834870878
1.132808396390272
1.131712583320275
1.156723413601297
1.137354555374505
1.192505599189585
1.272498176575611
1.298724807119862
1.100474404213291
1.114609721126802
1.393323158275324
1.064307642873867
0.7569489615102702
0.8061157010063824
1.085798920089337
1.128764898545669
1.38354400052565
0.5155512919911531
0.5413683429631316
0.5430408867190754
0.5665076429323275
0.5700059462291526
0.5942476024564163
0.597943023408068
0.6241332507083438
0.6285691157696197
0.6555273396116652
0.6617921659074538
0.6881499944246096
0.6980778537805927
0.7235644576413806
0.7357063057657794
0.7614026001812304
0.7763362450490071
0.8028599340570386
0.8215011970500604
0.8491341614406716
0.872626777797331
0.9027847628699923
0.9382857567342586
1.018653734681549
1.163849960717094
1.282744535203158
1.364516615629155
1.404343746131357
1.419728463983389
1.429269265464181
1.430739236424575
1.454478284093187
1.443917845030524
1.454841528648807
1.464494928657501
1.493059175726408
1.476379441482744
1.472232380430333
1.505633691669513
1.521696668098629
1.571480959969007
1.505934805065928
1.537633640018834
1.145908387524744
1.197328737880952
1.211832114775953
1.258145929221576
1.275895568527516
1.323384817790751
1.339289747814955
1.408162723366944
1.461142447189569
1.518473437667806
1.428619621808377
1.203313762017022
1.022932434345934
1.066368080146896
1.130867594934986
1.178733558380704
1.162629398340993
1.127950126382617
1.098509693949399
1.116453217176649
1.151468246859476
1.171994007756866
1.159928444061455
1.146799291093693
1.140016975801508
1.135436682658563
1.133879401226462
1.134060758619178
1.133639210281996
1.137588493902046
1.137325781192877
1.132224697752551
1.133552349086895
1.132188930963296
1.14287972960174
1.136001542281948
1.18549936560916
1.221365111719428
1.254865062821041
1.100718377336612
1.156890087577685
1.325916259892424
1.393160156509184
1.061043574646388
0.8926593199087974
0.7671349702020163
1.008897382542651
1.116394875399007
1.123110624028664
1.204652636741465
0.504838586473862
0.5311278239596509
0.5324876075009672
0.5558153668329715
0.5581763449686291
0.5824170195095167
0.586164934297019
0.6111539513880164
0.615794602404227
0.6416584926092774
0.647795875866968
0.6735741242547878
0.6821072711378369