/*--------------------------------*- C++ -*----------------------------------*\
| =========                 |                                                 |
| \\      /  F ield         | OpenFOAM: The Open Source CFD Toolbox           |
|  \\    /   O peration     | Version:  v1912                                 |
|   \\  /    A nd           | Website:  www.openfoam.com                      |
|    \\/     M anipulation  |                                                 |
\*---------------------------------------------------------------------------*/
FoamFile
{
    version     2.0;
    format      ascii;
    class       volScalarField;
    location    "7000";
    object      nut;
}
// * * * * * * * * * * * * * * * * * * * * * * * * * * * * * * * * * * * * * //

dimensions      [0 2 -1 0 0 0 0];


internalField   nonuniform List<scalar> 
18230
(
4.506741814230102e-08
2.021518476489922e-09
3.100133687237189e-07
2.799704176419321e-06
2.432388192466289e-10
1.130577245895326e-07
8.902719949328757e-09
3.753948607862401e-06
5.211284927776542e-06
6.117257262624945e-10
1.203464840424011e-07
3.422993480308231e-07
2.295493134179314e-10
5.19259623705199e-07
5.271480111001652e-06
6.551795708986225e-06
8.924576176770016e-10
6.026154642042964e-07
1.628849770552503e-07
6.145481200207464e-07
3.498775030906741e-10
1.042660048012366e-07
8.115927385784264e-07
6.379006808942833e-06
8.903546168233052e-06
7.612328290283861e-10
4.728912793622725e-07
6.039779802873251e-07
1.825870091872828e-07
8.757364709062305e-07
9.771094714826334e-10
2.431565777271845e-07
2.678471879931105e-07
1.350693180880139e-06
7.515467249759421e-06
1.064037432969115e-05
9.854384089226254e-10
5.619820081806506e-07
8.779177134184585e-07
7.215389957455147e-07
1.766174750665986e-07
1.062484983898137e-06
1.802995624266726e-09
6.746736115571423e-07
5.023737173273159e-07
3.68502434183256e-07
1.761766405305065e-06
7.645088916236065e-06
1.265256820607694e-05
9.533639248920845e-10
6.262632840393218e-07
8.408899854245015e-07
1.547945388729569e-06
5.708502949913466e-07
1.967180706011643e-07
1.227393203085963e-06
2.133301095363708e-09
8.145395921988698e-07
1.617534247858351e-06
6.780082558241085e-07
4.719635922520343e-07
2.185058339102609e-06
8.391965666488848e-06
1.283655068873464e-05
7.018270299914745e-10
6.146538959572776e-07
8.598033453912653e-07
1.157378038860392e-06
3.061161786968278e-06
6.136411387299974e-07
2.179565631133085e-07
1.413996168428833e-06
2.456853362315462e-09
1.459676562723883e-06
3.032945576302426e-06
2.144986845231819e-06
7.144944728742463e-07
5.324490343193816e-07
2.552538868643574e-06
8.76413310961678e-06
1.222531754249218e-05
6.658442745802493e-10
5.706851881330635e-07
8.371066603199619e-07
1.252826120409874e-06
3.083159858286911e-06
4.960054291659987e-06
6.64681199376218e-07
2.570407303817979e-07
1.624735777985389e-06
2.059767704622566e-09
1.660845967270006e-06
3.052254717852431e-06
4.607901537769086e-06
2.450700899819903e-06
8.588761667563771e-07
6.329293326071499e-07
2.810812429484335e-06
8.432145116689032e-06
1.258161396039491e-05
5.863022075169662e-10
5.351408263279081e-07
8.559326542415378e-07
1.270527012927009e-06
3.331952243616248e-06
4.689080260065829e-06
7.029452265487622e-06
8.233995323566365e-07
3.098157702048437e-07
1.84617559080164e-06
1.94789258868949e-09
1.581045982038535e-06
3.116149489419747e-06
4.769575793211449e-06
6.305571326947996e-06
3.021971320395071e-06
9.792739677948324e-07
7.921202134809688e-07
3.045059539330044e-06
8.390764211891745e-06
9.844860035534875e-06
4.937832619931529e-10
4.856945982120347e-07
9.225334907887467e-07
1.282459215615617e-06
3.458867281939608e-06
4.592121024957791e-06
6.803743547415214e-06
9.243749861427139e-06
9.579789866515725e-07
3.805652836005535e-07
2.105776604684685e-06
2.150534105185843e-09
1.522945899948064e-06
3.083143536099332e-06
4.772831087548213e-06
6.517661740830617e-06
8.170149762670088e-06
3.268164305132724e-06
1.303536567398352e-06
1.021696733011267e-06
3.325501020155617e-06
8.289348963314655e-06
7.09675975518128e-06
4.340116680197123e-10
4.187273026586195e-07
1.035293406470366e-06
1.515459962313517e-06
3.592139899519817e-06
4.917092058596738e-06
7.104608796028408e-06
8.812865789508569e-06
9.513783550444268e-06
1.169101963824008e-06
4.785223449798549e-07
2.420152986848126e-06
2.115594016352548e-09
1.528116549097586e-06
3.04020078377798e-06
4.744639586226604e-06
6.4872583419553e-06
7.204276750463904e-06
1.025054747596051e-05
4.078705264370995e-06
1.56825683789443e-06
1.337051568363577e-06
3.682824419066002e-06
6.406339184864776e-06
5.039203627023964e-06
5.055109183670497e-10
3.726275812491431e-07
1.235993535089437e-06
1.640325515988913e-06
3.809891572656551e-06
5.118960380732674e-06
7.196194015393248e-06
9.137688807428495e-06
1.107438951642198e-05
1.19092149204134e-05
1.332115813514218e-06
6.005498653540863e-07
2.838131426709223e-06
1.959244691472932e-09
1.526108914516858e-06
3.103814629724774e-06
4.538068783626576e-06
6.457668683012416e-06
7.079310744997458e-06
1.04772918839641e-05
1.203344306868037e-05
4.077374568068088e-06
1.813603980564335e-06
1.738090958307627e-06
4.018924857313664e-06
5.679231948495278e-06
3.940746812852796e-06
6.123882160965617e-10
8.030248560706682e-07
1.633780528207082e-06
1.876705719157933e-06
4.027589013156096e-06
5.625337392220278e-06
7.331582927150777e-06
9.216930364893005e-06
1.145131247176241e-05
1.392798670255031e-05
1.249711603881461e-05
1.628850669236078e-06
7.612015383045489e-07
3.483525510325532e-06
2.332467702353773e-09
1.50512202204215e-06
3.039306478595543e-06
4.708411793551356e-06
6.388951410564253e-06
6.809907433880228e-06
1.049140677055124e-05
1.032231074215941e-05
1.483462329493688e-05
4.705617420496186e-06
2.155498431721102e-06
2.270260122557753e-06
4.442512770035214e-06
5.582959083572881e-06
3.948934095800555e-06
9.25172954049736e-10
9.797198069644027e-07
2.103527172508292e-06
2.029207918169597e-06
4.282240881863048e-06
5.540535166110317e-06
7.483693274704404e-06
9.394578508976384e-06
1.156551526523303e-05
1.437488218213103e-05
1.753409097792038e-05
1.521682533941907e-05
1.973124694679516e-06
9.783110459901664e-07
4.239837229043895e-06
2.322281499286462e-09
1.672691002982217e-06
2.967657528409287e-06
4.633670181112191e-06
6.391196724224177e-06
6.783868155023518e-06
1.047166097876654e-05
9.887543698510271e-06
1.515493978886019e-05
1.648772542195297e-05
4.680655895934142e-06
2.486638831817397e-06
2.904925962732738e-06
4.959155655071646e-06
6.250949089109194e-06
4.5072754715798e-06
1.263333641670421e-09
1.09333593181517e-06
2.092354847016071e-06
3.37893577052226e-06
4.543399014533017e-06
5.705419105139451e-06
7.637202980963175e-06
9.550603902856629e-06
1.180287059840814e-05
1.453737442330798e-05
1.813330720400429e-05
2.236646831692043e-05
1.628683921965913e-05
2.432099786771213e-06
1.27125653687567e-06
5.251265803643592e-06
2.154910510916043e-09
1.71043167104847e-06
3.021660949354519e-06
4.154609723857144e-06
6.34142293854392e-06
6.366107094083805e-06
1.040694326682396e-05
9.48400042791294e-06
1.520987448282268e-05
1.33888632010826e-05
2.065679614975014e-05
5.348378550503667e-06
2.812823043920825e-06
3.684257308099449e-06
5.651034286550162e-06
7.435576856807717e-06
5.663298770895163e-06
1.276761100476823e-09
1.281986223049894e-06
2.327877386700312e-06
3.449790294941956e-06
4.819380872592267e-06
6.175591174106709e-06
7.779827202749748e-06
9.74053213617934e-06
1.199746147291469e-05
1.486146804263243e-05
1.834906715581377e-05
2.317977194488454e-05
2.876529821560585e-05
2.011076232679169e-05
3.011027765702469e-06
1.650114801312473e-06
6.32607764707653e-06
2.083177535318209e-09
1.381377347685913e-06
3.043755513997219e-06
4.095607267690098e-06
6.236962285602019e-06
6.64124070342984e-06
1.038948826836452e-05
9.090717809100294e-06
1.513184220834293e-05
1.304356779438821e-05
2.093148499195451e-05
2.099958510473498e-05
5.272360678810813e-06
3.133573532301602e-06
4.677999720436932e-06
6.564228988706366e-06
8.204061694086261e-06
7.258569551155857e-06
1.342647171934827e-09
1.222981486547023e-06
2.463035678189366e-06
3.728182828949684e-06
5.019204241281631e-06
6.520394154776584e-06
8.020431144971803e-06
9.919982169677808e-06
1.225523423025522e-05
1.51558641418538e-05
1.878463820231863e-05
2.351136414926972e-05
2.983911301765694e-05
3.725692161415594e-05
2.245437787710337e-05
3.743434688582512e-06
2.146877643665631e-06
7.712601898261904e-06
1.651550366732309e-09
1.390338510143542e-06
3.024544460003278e-06
3.519204128739499e-06
6.310223728476362e-06
6.033738116071502e-06
1.036214956270036e-05
9.148970162749832e-06
1.508641515586343e-05
1.254506460273171e-05
2.108271380132576e-05
1.795339938635632e-05
2.655859498137795e-05
5.313638018218033e-06
3.300084883870029e-06
5.788087200582507e-06
7.651123588400295e-06
9.110823814411744e-06
9.129841931105772e-06
1.430885277722436e-09
1.161319983673564e-06
2.3514673811213e-06
3.305897442203848e-06
5.317362156459911e-06
6.803004354929704e-06
8.463826998209847e-06
1.01249327727617e-05
1.249827071251452e-05
1.550949972107318e-05
1.921561200024016e-05
2.409977341043536e-05
3.03024552023547e-05
3.862595087389896e-05
4.814953090780347e-05
2.750811357649158e-05
4.707844144629672e-06
2.80250044416326e-06
9.742051232871797e-06
1.700007164264669e-09
1.311990244858487e-06
3.102005717987245e-06
3.41980408147968e-06
6.32358433802047e-06
5.813281175897512e-06
1.026790735190757e-05
9.112081384287276e-06
1.503671744744145e-05
1.208139897203053e-05
2.106801125532088e-05
1.851044996635962e-05
2.939678549377555e-05
2.689114264670184e-05
5.463474798552896e-06
3.347180757377204e-06
6.443474903828232e-06
9.086861593272821e-06
9.965986335834748e-06
1.125948091565781e-05
1.681793427093183e-09
1.221756530175671e-06
2.474791788716812e-06
2.920245469813085e-06
5.368056429997723e-06
6.51531514518652e-06
8.858419062628073e-06
1.078959940850408e-05
1.293942514301779e-05
1.587709077518196e-05
1.968863610497618e-05
2.467279115137461e-05
3.106117888831722e-05
3.928935620087441e-05
4.664385103032748e-05
5.61804945959475e-05
3.209270771332087e-05
5.955653988159543e-06
3.784090422770343e-06
1.254600486769538e-05
2.154798024625525e-09
1.528820100904805e-06
2.883648385257806e-06
4.012742378852389e-06
6.162903698424006e-06
6.17606380209278e-06
1.028142415840801e-05
8.892088371707937e-06
1.495652770744981e-05
1.227301123972871e-05
2.097657569513206e-05
1.643165386895314e-05
2.959294906696845e-05
3.513088492824543e-05
2.709507653758993e-05
5.436684364700149e-06
3.265299467785494e-06
6.576477238331859e-06
1.106147435036174e-05
1.101282585953881e-05
1.36418268980176e-05
2.062300070690923e-09
1.358696927782939e-06
2.594809955956783e-06
3.145404576911088e-06
5.461920551990662e-06
4.621185409250323e-06
9.339650718544422e-06
9.427735050271043e-06
1.380931077472901e-05
1.65216416614992e-05
2.023534903969805e-05
2.532411106922978e-05
3.186027213146912e-05
4.031047292823015e-05
4.748455572629916e-05
4.701368435999283e-05
5.937864247439243e-05
3.752844520679441e-05
7.677194504552846e-06
5.237997056598717e-06
1.648199201893004e-05
2.310212599621742e-09
1.712540112779735e-06
2.912079925431707e-06
3.668298264791744e-06
6.133328343706722e-06
5.87975121071897e-06
1.017863590600517e-05
9.074320751564286e-06
1.482211258747752e-05
1.187842228450621e-05
2.096170148764164e-05
1.620899247656294e-05
2.952429775835711e-05
3.438242260989566e-05
3.619986216371164e-05
2.680641662682453e-05
5.312890329011863e-06
3.120429111213492e-06
6.819057925282411e-06
1.294978141751431e-05
1.236341114182116e-05
1.666320067836505e-05
1.719935076868984e-09
1.812063150400432e-06
2.757761081334494e-06
4.001247125232601e-06
5.822071109789404e-06
4.490326000714236e-06
9.769772396109868e-06
8.059256958803094e-06
1.488914399678437e-05
1.624684485308614e-05
2.120561338290836e-05
2.613061275933846e-05
3.273230704000195e-05
4.140677895734501e-05
5.048689938366032e-05
4.826035008947563e-05
4.816929813458646e-05
6.072569603667631e-05
4.501658813383489e-05
9.980968712750621e-06
7.357444848646048e-06
2.042080879489702e-05
2.026328060966403e-09
1.458106782608627e-06
2.799672244655368e-06
4.184638481193564e-06
5.887232345441166e-06
5.714672324311155e-06
9.888563439682164e-06
8.587738231300003e-06
1.477352573262635e-05
1.174663534011437e-05
2.08547189858446e-05
1.621813923919969e-05
2.804070511586818e-05
3.211583322028743e-05
3.334303718249623e-05
4.651191332233427e-05
2.434004721756735e-05
5.514833633980878e-06
3.105114725344591e-06
7.187147001739635e-06
1.532830215294103e-05
1.410064206932017e-05
2.004138577383249e-05
1.983329761044421e-09
1.429374282481386e-06
2.983633154986587e-06
4.319351051898596e-06
5.911334403560272e-06
5.718037316270608e-06
1.00712759072208e-05
8.201221986563368e-06
1.598566082832161e-05
1.533657328253978e-05
2.311739610485026e-05
2.745465733936205e-05
3.381819467739541e-05
4.261338292081321e-05
5.364387978364857e-05
5.131690239026392e-05
5.067904362623132e-05
4.989139487507232e-05
6.154274921869392e-05
5.482689008803553e-05
1.309200796297061e-05
1.037855683714044e-05
1.678398987084288e-05
1.595597986455705e-09
1.102952604143609e-06
2.619118622656627e-06
3.41916407088785e-06
5.538608910122269e-06
6.2436176392399e-06
9.604241700447961e-06
8.499261608808987e-06
1.457355748046947e-05
1.177185665080715e-05
2.072801916125843e-05
1.631254689195651e-05
2.718979420404605e-05
3.252760256404592e-05
3.073381882564121e-05
4.033731009441688e-05
6.909334200647717e-05
2.509562517451367e-05
6.045540616547841e-06
3.368001429553845e-06
7.750238398618416e-06
1.84667371142334e-05
1.589438214417467e-05
2.368190389815693e-05
1.675252591428926e-09
1.675795256575124e-06
2.702394176347272e-06
4.26017292779854e-06
5.960120932605952e-06
5.814575264010687e-06
1.042213977430021e-05
8.353525982148413e-06
1.665253046661556e-05
1.410189209868828e-05
2.537540179786771e-05
3.007817120961549e-05
3.558260447713421e-05
4.405099604372482e-05
5.534609927759869e-05
5.717284009431913e-05
5.403547458581065e-05
5.270831767403338e-05
5.157946953132282e-05
6.159596751119012e-05
6.348149038052752e-05
1.717024494340005e-05
1.544875883750246e-05
1.349862079935355e-05
1.136170579812359e-09
9.700515894377668e-07
2.247765869214827e-06
2.473781972690655e-06
5.065894799399405e-06
5.392621678242156e-06
9.047059867775708e-06
8.798615903977817e-06
1.421679046490102e-05
1.183171433691904e-05
2.065138904721227e-05
1.635706799210815e-05
2.679052561330212e-05
3.172527156280496e-05
3.090432083141289e-05
3.879431080658307e-05
7.008939059163381e-05
8.865241016120409e-05
2.585952560957187e-05
7.073303019564186e-06
3.923428788606735e-06
8.593008291953083e-06
2.221396524802469e-05
1.802252683115462e-05
2.793178507754891e-05
1.677672140950811e-09
1.219955020978054e-06
2.879322310627081e-06
3.688033145780995e-06
5.942212400737591e-06
5.588430746243507e-06
1.055568977713028e-05
8.418443017036453e-06
1.706179782875492e-05
1.325202253362099e-05
2.728321040746681e-05
3.3165178412127e-05
3.921411182225465e-05
4.646038318233897e-05
5.713877555588918e-05
6.923207696592268e-05
6.116252961142753e-05
5.650215930805685e-05
5.515344707994706e-05
5.463926548351091e-05
6.272701193203958e-05
7.144302935360734e-05
2.240992550089076e-05
2.351963336716554e-05
1.21519453078985e-05
1.062596896282072e-09
9.104773584978457e-07
2.247454028369952e-06
2.208384289737974e-06
4.667611237051872e-06
4.869994613059534e-06
8.515187304823262e-06
8.293286297355648e-06
1.362713560990813e-05
1.161323989206576e-05
2.04623638903286e-05
1.689658397721609e-05
2.578427458766722e-05
3.244345912783357e-05
3.036951013149073e-05
3.725811615770981e-05
7.007380212271088e-05
9.216300233056085e-05
0.0001087114248748072
2.925035519332112e-05
8.603039754455006e-06
4.693830745555748e-06
1.00584636405163e-05
2.743781473396184e-05
2.048917404362053e-05
3.277150676480735e-05
1.753406346926496e-09
1.144749370734337e-06
2.337674001277378e-06
3.024780267670739e-06
5.735783870862562e-06
5.52735091045524e-06
1.048886845103324e-05
9.013417738994028e-06
1.738363421253374e-05
1.359495451639144e-05
2.83120746015791e-05
2.556315469305767e-05
4.371954370197677e-05
5.149190997829403e-05
6.029044448280815e-05
7.389938151938429e-05
7.60773910223476e-05
6.423903951116164e-05
5.908531244207135e-05
5.87120589274299e-05
5.822863239238851e-05
6.498667107294572e-05
7.766984986442915e-05
2.884534732895669e-05
3.513522634102797e-05
1.240628870110502e-05
1.507679829213636e-09
1.149546889338215e-06
2.196454969133974e-06
2.203427318444382e-06
4.451247352828896e-06
3.861858705160086e-06
7.959283692996513e-06
7.544148609002224e-06
1.30136177790888e-05
1.163283689863883e-05
2.004847513139992e-05
1.703956256695857e-05
2.485401794898047e-05
3.227623241888005e-05
3.10467497908684e-05
3.672026172526228e-05
6.61002254202477e-05
7.773269921340473e-05
0.0001220942886847177
0.0001226990813394309
3.387460664238691e-05
1.084728303981842e-05
5.721816715983797e-06
1.224575896642187e-05
3.493652251736653e-05
2.355577932044962e-05
3.813800345582264e-05
1.894680709008445e-09
1.162766213301227e-06
2.396836584379272e-06
2.999069951905863e-06
5.674253366018355e-06
5.361879546441792e-06
1.028358531660054e-05
9.336938402381869e-06
1.746215818808687e-05
1.436861574090498e-05
2.868929123255849e-05
2.442956132105967e-05
4.789204565295527e-05
5.779390121624987e-05
6.724748106864799e-05
6.41980209590543e-05
8.226939296471579e-05
7.820160228832615e-05
6.707217423433896e-05
6.337251385759931e-05
6.321317687819844e-05
6.358915107760091e-05
6.85823285968695e-05
8.487058054688874e-05
3.637657183088231e-05
4.907164029394113e-05
1.383989696834702e-05
2.632187961646817e-09
1.252191105792593e-06
2.102347148937478e-06
2.412303143431704e-06
4.371090872445175e-06
3.822756110952657e-06
7.566324512262167e-06
6.687761328122471e-06
1.256840845712544e-05
1.122249271843682e-05
1.943929391200615e-05
1.808428371794052e-05
2.346551885772499e-05
3.238895690140267e-05
3.105758636814992e-05
3.731413200703634e-05
6.378439037847862e-05
7.609520711859958e-05
0.0001220115727282224
0.0001585516380775271
0.000141524869229137
4.148540199287386e-05
1.393573387412086e-05
7.190510767792654e-06
1.593846689844034e-05
4.447559310337133e-05
2.719243902174108e-05
4.382783615530844e-05
1.932106853415944e-09
1.231620711572215e-06
2.420436956821882e-06
3.054648890428715e-06
5.402612005631725e-06
5.040013986095803e-06
1.003845740903656e-05
8.779701887714413e-06
1.725745753117519e-05
1.500686867315319e-05
2.897157555886406e-05
2.415691294855119e-05
4.928291129859227e-05
5.283152998004552e-05
7.611974573107389e-05
7.715372337405739e-05
6.359680887819894e-05
8.310839644220708e-05
7.945646157455412e-05
7.222806246095316e-05
6.857779016687508e-05
6.956976826619698e-05
7.016405374686757e-05
7.354426968016435e-05
8.938571375528364e-05
4.482592080819307e-05
5.867026751315307e-05
1.657102473537395e-05
3.037049087533083e-09
1.537922965134936e-06
1.970954663755525e-06
2.026074303403601e-06
4.147344350747314e-06
3.801118971069472e-06
7.509642878440316e-06
5.887397349338542e-06
1.226172631863778e-05
1.095709203652016e-05
1.901923234739052e-05
1.978182030764434e-05
2.164722153160063e-05
3.23197296560983e-05
3.132719720325623e-05
3.699478457306386e-05
6.711428506597222e-05
7.226642754456269e-05
0.0001219451554363965
0.0001583631862418006
0.0002035813613702437
0.0001768445099885733
5.178603468640176e-05
1.824398642217474e-05
9.237000976356193e-06
2.16393108078496e-05
6.01172434803309e-05
3.174326868512278e-05
5.091257561641711e-05
1.971330076152471e-09
1.278135926682169e-06
2.462855765841323e-06
3.077117432626972e-06
5.526818399254136e-06
4.797520680999327e-06
9.88298916142592e-06
8.411500343439353e-06
1.713288806908944e-05
1.455241751837474e-05
2.898341163101852e-05
2.556394658897679e-05
4.966660394028231e-05
4.693065105827808e-05
8.498867547521074e-05
8.711223077186985e-05
7.656485734298744e-05
7.302624662901879e-05
8.124148108060639e-05
8.38216915722298e-05
7.786106795630223e-05
7.608396921560961e-05
7.719159586829602e-05
7.895865150920052e-05
7.98919959515294e-05
9.54060973681184e-05
5.393966963837033e-05
6.12024820982383e-05
2.069022312071216e-05
7.341051952229619e-10
1.212154181132902e-06
1.962664556807311e-06
1.891443492151122e-06
3.593807386448458e-06
3.919341276639409e-06
7.048929367639935e-06
6.937323531939162e-06
1.201950335209435e-05
1.065966140376325e-05
1.875599654928353e-05
2.157176874914372e-05
2.062113302171265e-05
3.202453187864059e-05
3.185634438612474e-05
3.654220388618973e-05
6.652750961540438e-05
7.711230710039416e-05
0.0001202642929480879
0.0001542177749785369
0.0002034691980121131
0.0002569668036435785
0.0002281062982775794
6.693743388329178e-05
2.408979816244153e-05
1.20417040663503e-05
2.920332181621243e-05
7.660856375537268e-05
3.729321972784368e-05
5.747550424265384e-05
2.005661977327058e-09
1.290292101962432e-06
2.432034413101659e-06
3.170068207824708e-06
5.640723762262223e-06
4.978628057137633e-06
9.935225001585648e-06
8.105574936705782e-06
1.698467354925494e-05
1.486326498839858e-05
2.905072884572875e-05
2.516002000688374e-05
5.003566881908032e-05
4.712635604464187e-05
8.810519609959995e-05
0.0001038983911595911
8.036447096894215e-05
8.396109656178218e-05
6.938993912132051e-05
8.626740457818536e-05
8.755534336494987e-05
8.620370704296416e-05
8.479197557199735e-05
8.694755444730058e-05
8.876802516769939e-05
9.071076743511112e-05
0.0001039589298531111
6.507280388008335e-05
6.434771470373711e-05
2.205878422032042e-05
6.483665808334715e-10
5.265957149521872e-07
1.816276283226742e-06
1.372498278451612e-06
3.256909839593769e-06
3.222438769205768e-06
6.470722352658029e-06
7.389741669784803e-06
1.132989396681011e-05
1.291479184512935e-05
1.681874721921248e-05
2.232854987477854e-05
1.943251386634542e-05
3.288403214499014e-05
3.322507253868173e-05
3.628496720159274e-05
6.523739156070609e-05
7.643785623380758e-05
0.0001214520178582197
0.0001424112526879185
0.0002033503629511517
0.0002568749899272454
0.0003183600918943194
0.000326589190625619
8.772839525066478e-05
3.20679500164656e-05
1.58830103793618e-05
3.584875242700501e-05
0.0001062487780377677
3.898091368140707e-05
4.963728632758043e-05
0.0001226997533107714
2.028048676615093e-09
1.287102920899543e-06
2.460545657606002e-06
3.065192447696429e-06
5.681311510322296e-06
5.316414315765424e-06
1.014638835883388e-05
8.191783263589193e-06
1.693079062674881e-05
1.461737218860076e-05
2.898360191462127e-05
2.572806705840483e-05
5.029536120173063e-05
4.725733230562622e-05
8.868935450053421e-05
0.0001099764359942639
0.0001281929725439818
9.348705436050622e-05
8.075784175585175e-05
7.848476489557654e-05
8.709545218427625e-05
9.495792077353272e-05
9.485639979004338e-05
9.573381534963629e-05
9.718822867744916e-05
0.0001018440567520178
0.0001035850243132313
0.0001191052753270271
7.454732074523608e-05
6.359138962924206e-05
2.482766427454732e-05
6.773323184467645e-10
6.64714040458679e-07
1.433808757029669e-06
1.302514903443558e-06
3.107631489680483e-06
2.73679398800068e-06
5.924823562191235e-06
7.68116236792503e-06
9.874285918142756e-06
1.398317052950332e-05
1.265810694635079e-05
2.156047647599445e-05
1.884450891194193e-05
3.132768647165379e-05
3.683833857911882e-05
3.575889350917419e-05
6.509556841796747e-05
7.484497235701399e-05
0.0001211439621215461
0.0001576262713496361
0.0002029593985698172
0.0002378543513660173
0.0003182350084419053
0.0003870066857012901
0.0004589954182268637
0.0001174162459432273
4.288725509348788e-05
2.126324219015201e-05
5.723342150103032e-05
0.0001250201166769976
6.576481579783444e-05
5.181360218564254e-05
0.0001787341382684595
2.03133557470455e-09
1.294759976965071e-06
2.523835625528758e-06
2.981371605833235e-06
5.683915003410681e-06
5.425732025778699e-06
1.023921338665676e-05
8.363727365979555e-06
1.719008917860077e-05
1.424581250261064e-05
2.906479045572046e-05
2.534790173123468e-05
5.053012010820881e-05
4.794187415717128e-05
8.959351995282332e-05
0.0001074179057020832
0.0001522109506026439
0.0001392088613082711
8.62942795469563e-05
8.720788319647686e-05
7.726118052537197e-05
9.42369954287289e-05
0.0001016400375141816
0.0001050832792542221
0.0001062524176357209
0.00011104881222972
0.0001172473972701444
0.0001217732332236938
0.0001249055751151352
7.946626215842911e-05
4.901387769278452e-05
2.898580169161362e-05
7.844874972889514e-10
8.507190355696216e-07
1.708862099558218e-06
1.52200203303398e-06
3.295102547107133e-06
2.221960325844534e-06
5.837405587877085e-06
5.534272430373508e-06
9.264600900974171e-06
1.327170113514308e-05
1.219435219465543e-05
2.118511054226178e-05
1.79754377461457e-05
2.845992634587277e-05
3.931291843811386e-05
3.773977111846021e-05
6.553186178543295e-05
7.533334452995101e-05
0.0001208708826390806
0.0001572704886435822
0.0002024557523811124
0.0002562306039377812
0.0002956365805651477
0.0003869179618908061
0.000462000037094102
0.0005394268115151876
0.0001594941985310297
5.745883232848954e-05
2.982717655328395e-05
2.240804511600067e-05
0.0001195381474349884
3.437598375867808e-05
6.165347300216344e-05
5.306097173968204e-05
8.083553747307887e-05
2.560858659144359e-05
0.0001760165836889406
2.041623927707408e-09
1.314990577668464e-06
2.53855930414221e-06
3.321203177838704e-06
5.837864318736887e-06
5.182363531263895e-06
1.035772728066997e-05
8.427805694946645e-06
1.743283551243951e-05
1.439896443780023e-05
2.916134895607748e-05
2.529245343782872e-05
5.06749765237236e-05
4.753465035850113e-05
9.021559985862579e-05
0.0001096888153713738
0.0001536927264305979
0.0001987380104010849
0.0001404417365901735
9.923223475864528e-05
8.884585883172014e-05
8.702915260151439e-05
9.801049124718436e-05
0.0001098484657038321
0.0001138039581429967
0.0001192984545951576
0.0001263478299616482
0.0001377149462599338
0.0001315784743081424
0.0001449747016802983
0.0001906770381057851
8.800741680156852e-05
0.0001652001296698247
8.770264430235733e-10
9.396605590217327e-07
1.834350760174726e-06
1.996385734892911e-06
3.270338255898011e-06
2.704820018796864e-06
5.832653939194773e-06
4.972201812630789e-06
1.012330574804649e-05
1.20124478522605e-05
1.254113540981374e-05
1.846292637459948e-05
2.007039168604705e-05
2.504943437391099e-05
4.013146377667796e-05
3.740014971210945e-05
6.838412927131993e-05
7.6375494140113e-05
0.00012027222574827
0.0001506282691823571
0.0002020458085085452
0.0002556772226163055
0.0003173047291409304
0.0003307093488646445
0.0004618522670509505
0.0005432830711589037
0.0006277684701148151
0.0002187740433115248
7.660079853460577e-05
6.256599591782009e-05
2.041441485719687e-05
2.31229084178153e-05
0.0001529786569346681
7.578327863102249e-05
9.816899991599114e-05
5.18042021199163e-05
9.87076884958653e-05
3.503851157351409e-05
0.0003197245233916242
2.430103827669448e-09
1.313609535412298e-06
2.565261276362367e-06
3.3796932004258e-06
5.907905616584245e-06
5.669053345997984e-06
1.043929450689096e-05
8.649624038105698e-06
1.754987603902739e-05
1.464678871799544e-05
2.959589766710405e-05
2.445050898887509e-05
5.109406444979687e-05
4.647559960119093e-05
9.089371300520429e-05
0.0001088471837835151
0.0001553661886017823
0.0002008186934233114
0.0002579819041430866
0.0001599384704948254
9.795995470172973e-05
9.750631668350194e-05
8.686668123358758e-05
0.0001030836685572301
0.0001161098673937744
0.0001248077454765428
0.0001340162011514453
0.0001468441787762419
0.000145659870614106
0.0001569137299423155
0.0002029570219075258
0.0001500711668517344
9.81157383258898e-05
0.0007112841129173168
4.084715176021747e-05
8.739343479112903e-10
9.675739741765169e-07
1.889469484970256e-06
1.912189732000549e-06
3.397184085754838e-06
2.768915836535185e-06
5.928675290272757e-06
4.205482389660904e-06
1.041194535904254e-05
9.121404946923183e-06
1.599159550667878e-05
1.711236717690055e-05
2.212699740239796e-05
1.996375944908566e-05
3.731647826775491e-05
3.724345635056152e-05
6.904952333189516e-05
8.968718567854681e-05
0.0001191944314016512
0.0001522775569037394
0.0002015638203425526
0.0002551116079706662
0.0003166384134184589
0.0003856858172179622
0.0003987185001090036
0.0004724890869660513
0.0006325219947908619
0.0007241202935095516
0.0002999395334692489
0.0002155624178080819
4.732695819588788e-05
3.221604628443096e-05
6.242173950461991e-05
0.0001645145521135777
0.0002472843980627601
3.751363986975675e-05
8.98267245174463e-05
7.627860648370067e-05
6.054683568258545e-05
0.0002066268765385272
1.96259003577047e-05
0.0001009571385079841
2.799076790446365e-09
1.423049757859998e-06
2.656432832754288e-06
3.344179905085408e-06
6.005001130986036e-06
5.365212931616477e-06
1.06616371014239e-05
8.675343578834355e-06
1.779378441523874e-05
1.441775334975184e-05
2.98288619824727e-05
2.569228983626469e-05
5.144955213845295e-05
4.659995849904525e-05
9.172874360568778e-05
0.0001075035204532895
0.0001570645400874866
0.0002029382908934585
0.0002619476526494796
0.0003064700980552669
0.0001600080589592547
0.0001114807251561254
0.0001035426430387751
9.190096119807157e-05
0.0001076591201813813
0.0001238525543565933
0.0001374721203969181
0.0001494616210189343
0.0001435467234795823
0.0001393051162669436
0.0001820120349191968
0.0001645231054772075
0.0001995606118810503
0.000248190114437746
0.0001115441972231125
0.001328965287391945
9.672051818892843e-10
9.380978820088636e-07
1.997514962571941e-06
2.033447928015926e-06
3.67750532665369e-06
2.545831636948741e-06
5.377526346521917e-06
4.528166104767539e-06
1.007784334169776e-05
8.475551752092832e-06
1.629549509001945e-05
1.490521851771958e-05
2.414552445335408e-05
2.023307048546239e-05
3.975331474225196e-05
3.444197772494419e-05
7.075138976252536e-05
9.108727443831171e-05
0.0001185087546941077
0.0001551235207887957
0.0002006279546774287
0.0002544712297981964
0.0003159242691406136
0.0003848280532437531
0.0004602343982059028
0.000473499308197885
0.0005121846136001642
0.0007281649821895496
0.0008255929335266152
0.0004135672351465753
6.376803389604927e-05
0.0002019688507895127
6.409771215809307e-05
3.324150036562516e-05
4.686457409331343e-05
0.0002180662149468325
0.0002070790100959038
6.180296589620592e-05
0.0001058343715011276
8.876691115150857e-05
5.560607292702668e-05
0.0003477753543586187
3.102696256304934e-05
7.266947263103573e-05
2.206725974517005e-09
1.768687412488768e-06
2.888008014227879e-06
3.859396238735772e-06
6.090383436480866e-06