/*--------------------------------*- C++ -*----------------------------------*\
| =========                 |                                                 |
| \\      /  F ield         | OpenFOAM: The Open Source CFD Toolbox           |
|  \\    /   O peration     | Version:  v1912                                 |
|   \\  /    A nd           | Website:  www.openfoam.com                      |
|    \\/     M anipulation  |                                                 |
\*---------------------------------------------------------------------------*/
FoamFile
{
    version     2.0;
    format      ascii;
    class       volScalarField;
    location    "7000";
    object      omega;
}
// * * * * * * * * * * * * * * * * * * * * * * * * * * * * * * * * * * * * * //

dimensions      [0 0 -1 0 0 0 0];


internalField   nonuniform List<scalar> 
18230
(
28062078.50804694
6848535.452697551
47710817.32234254
17764636.84479656
5860628.286881973
24019458.50244305
11249684.21007627
23416241.01345132
13445586.46130074
8408745.299145591
7635060.150608691
22141946.95957837
5424035.050445736
22197251.04742893
16951810.13435598
11486535.21726628
10613770.9694848
8945858.259957816
6822435.065946816
20302347.21242286
7125870.116609299
26837029.85702928
21585196.83620083
12219786.32664545
9659709.559166528
9310462.031463938
10507865.67368379
5121650.30354689
5254360.912638345
17729520.28828988
10263990.49382569
6167721.104673251
18975885.28969076
17600098.41020387
8322101.678861003
8270563.75264114
9552119.041940911
9845353.940450253
4189391.770916513
2679492.950668624
3756684.803609291
15126357.80705716
11974461.73571792
5921486.79487924
4157277.527391449
13043209.89733462
13165855.38897526
5617988.797478599
7252489.015515896
9815139.623963684
9840607.722292608
4482339.647632167
2352441.148182543
1378068.168378708
2632857.142138778
12871070.03406409
12471462.74894252
5054708.834775407
2985077.655287768
3035185.041137776
9161868.023961702
10357642.01378718
3772219.42102215
6746732.778199174
8853033.396102395
10134107.63950299
4302499.585648406
2444506.854125341
1208148.89678049
898479.4585411451
1999854.240563715
10991369.2089323
13259159.45436185
4682868.346167213
2950321.362943593
2122796.099342934
2492087.980588475
6983867.219051089
8495885.630654395
2991824.569949943
6525024.754054558
8610147.19420635
10441459.81735403
4412456.426616446
2231627.333792073
1226685.222151235
808378.5325673323
738316.8355296302
1596095.277840303
9442742.575796917
13450324.15008788
4792894.163940517
3048456.266327894
2348658.854742956
1796551.10731803
2189931.474095563
5794909.343322708
7235402.577538889
2673573.491257169
6208727.183573163
8025686.361148343
10665404.35165714
4273468.41970765
2178495.575331894
1138977.48077186
833177.0381049844
607182.9812961427
623335.8522882293
1318002.443077199
8091302.878166596
13077638.26361977
5021087.412612507
3097389.370952196
2433887.231494374
1989101.258968377
1604749.837165419
2004872.362796003
5044583.406257053
6439515.56404827
2396900.452829425
5534962.956029706
7316501.217065737
10454361.57467394
4013245.361349241
2073525.058003976
1110909.275932065
804762.2647808071
644579.154088465
515321.8907981796
541808.1015917124
1103947.097657734
6945265.307100486
12929906.23084474
5147965.918331979
3137866.277027207
2461117.85825518
2060461.898229829
1761994.583712572
1438753.861206757
1789589.338441036
4455046.452078669
5906097.856676898
2200285.262557556
4818256.031062243
6782122.553854136
9035964.111745391
3556622.72612395
1861870.771664655
1079042.127171572
797340.3890764276
630137.4557545877
553803.7002939174
447289.0541211155
474919.8976869708
935211.9838522758
5966155.404277535
13373842.81761711
5030829.966888434
3171786.429570997
2491573.89887059
2076883.884515141
1846453.479195703
1527608.023823502
1299088.472146532
1600999.988836351
3994066.293099918
5547668.26642677
2126077.742415321
4301349.670916916
7495550.778907865
5954830.523864764
2900907.150390355
1681784.749130588
1028075.724872508
787344.6356853216
633419.9129449346
546520.30325785
479488.440084665
394622.4655087025
420840.6589154233
794895.1309327066
5137278.378853668
12887649.4222201
4942718.772996426
3129991.114476578
2520266.065189649
2090118.778574581
1854972.272996466
1589439.863106794
1398881.345656091
1171962.791628687
1437389.503344618
3584732.591897242
5275618.955455378
2092709.304524498
3945159.258858347
8319455.326166129
2474078.964478419
1969988.721270054
1464573.270965981
983999.1903003346
775386.3867779833
635408.3262152892
553416.3305660873
474599.7395674805
421460.0520943484
339879.4571083129
364305.4372822153
671249.2040125076
4429901.903778571
13244483.28246155
5042446.873480561
3176510.242285733
2514848.846199282
2102722.606966644
1874283.343889486
1594991.014580989
1457953.802431879
1197663.840841323
1065128.691184773
1277721.784647145
3213496.201923835
5069921.841328633
2082396.06282589
3686846.927354293
8432000.671936017
2798610.952038449
1461936.982116579
1246958.556853233
939331.3177266831
771410.2082229645
637639.2928879345
557653.4151530169
480934.1454163718
417967.100906633
362177.3855557666
289274.320723878
310640.380106095
560332.3447113713
3798851.610147218
14103587.96857596
4955661.940783104
3251145.184259307
2562360.221981681
2105607.997760978
1884151.515070151
1602587.725488296
1463926.777780998
1240515.793507731
1092912.33649004
929936.5691171568
1119597.975134592
2873079.944813444
4894170.088260695
2087209.786018995
3505830.619736697
9431957.818255885
2916982.309667447
1701520.275811582
1129940.219054247
910898.8634590427
768138.5964398263
642881.4261063584
564501.1022507455
484778.6258254802
423291.4832226607
358365.2214855091
308671.60168665
243343.5852565677
260107.5474784297
461398.5223666695
3222173.642548247
13654416.69153119
5123900.76936213
3260772.890254616
2641997.163945214
2119327.397539953
1896739.180686284
1601114.084855099
1477122.719105249
1238877.567161446
1145460.848117373
889244.8445347697
812187.1570405368
960203.8324216093
2526091.367258594
4684867.299350794
2124610.159986729
3436479.319529344
10342117.13473809
2917336.633676967
1828727.17812801
1284833.290749222
938020.0829835759
775571.9899974645
652862.0213639206
572232.8420722719
491104.3336082934
426559.7137067645
362374.3374153284
304539.4955388751
258401.942762674
203025.5568628584
216741.0722813736
375439.6119429158
2733367.304930027
13533472.30946513
5402285.864863122
3320176.726878584
2662334.299364272
2151224.317199814
1899690.749759441
1598730.311268362
1477310.857458947
1242489.457780046
1145122.837718141
922617.1354247081
789140.5090022056
670078.3745462407
801961.0831238605
2147557.237863899
4440105.82563448
2354566.81009765
3390817.269609914
10456819.73099628
3647781.162554554
1998625.431482678
1420757.211715738
1057538.614238588
825878.7843003683
672156.6608637554
584555.121764785
498010.3925797682
431534.0173328583
364018.3147971325
307104.0257833078
254476.2159612348
215174.5561064054
170122.2212646287
180014.3343895398
301572.033718011
2276948.497809126
12800813.33663282
4848603.041149455
3289015.678780154
2728713.309019562
2136393.749251044
1935103.294974936
1592164.025507055
1471545.769241226
1238685.849597503
1152158.104597363
919281.7370985074
826676.8690561333
599071.6085859438
538502.3012801638
659147.5765551638
1742435.863339448
4158334.48432622
2475955.368953197
3249037.581905472
9974486.147581661
3741632.173233144
2242294.895586499
1655909.633758122
1195987.109963013
919908.4254226445
722954.5113996645
604577.4853102106
508728.7175560773
437403.7605833544
366707.3992409551
307841.0128224023
255950.555006699
211694.5209750696
179073.8730332604
142533.745776281
149361.6817085633
239968.6665049516
1848603.995553429
12815071.48987187
4957424.568423463
3027699.019216038
2664463.679865262
2106127.467171405
1914772.780917416
1595369.000332518
1467053.538691387
1234272.602410184
1154500.375490833
920614.0893065959
824092.4656113896
621679.8896299226
466897.6389590357
431675.7424470446
536675.0503503371
1335178.897055503
3764245.851594338
2511066.796622994
3034962.019039648
9652925.491746634
3540703.229245085
2221000.565387628
1782834.092841144
1343007.70615872
1066502.643943558
807122.5858992918
650876.083556057
524878.1737304962
445859.9727185279
370305.9782050179
309590.7721634754
255961.5513269913
212374.93661937
176279.3916417331
149188.6870714222
119637.3372293971
123620.5572089442
189216.5430198072
1455717.737965847
14299158.96355044
4319363.623807511
3034180.865570697
2435001.965625274
2074878.475347448
1865456.59289775
1586316.926898472
1471895.34532405
1227349.901754773
1149226.06534389
919436.1980398978
830609.8397690647
618881.6504538183
487838.8434924553
367779.0582757593
333189.4861570892
433279.9249021073
958076.4097517149
3297857.19132154
2501735.320897311
2773971.974417684
10770444.60787012
3156438.19475961
2101146.8152646
1706954.280610304
1367596.095188631
1225382.374384827
898837.9042715433
729809.6156216561
558578.6660286784
458625.1087944165
375323.8917628041
311779.9595503258
256361.460617352
211918.5637420948
176321.052996261
146867.5771233594
124360.6074351018
99993.68682548897
102230.6553269672
148329.9760546506
1106157.297742093
14323686.69513278
4604865.129399129
2969386.063692429
2489463.751640947
1999781.809124449
1866831.48252997
1563794.12674528
1462873.811895671
1226399.148883485
1149366.732182745
913033.1825677146
825882.0157473203
621770.0993916169
484277.394601608
384302.8070769657
265003.8146855177
244451.1780310364
346413.4853969446
690196.7634377724
2823085.440870627
2433238.167521369
2489377.136177444
10754863.05425299
2535155.305386952
1967734.110708584
1595577.451758539
1304099.006795496
1225188.395377203
951565.1288914341
809506.2950673044
604534.8252118444
485041.1219554471
381930.9450930848
314297.1614386883
257275.2702835545
211689.9117924775
175620.1040486388
146665.8322420915
122441.5018185815
103223.9658622477
84057.09468342036
84920.48411270622
116748.3313152143
803132.3268694637
12781122.19426489
5499802.774160339
3363209.501317618
2548948.16581491
2059159.15068878
1848358.333246101
1557107.703920335
1467401.359114834
1218902.470756273
1145505.714619486
909228.1334815393
818473.7578885612
620827.7795850358
484611.7307203595
380894.5882816777
276040.7434031616
181038.7278697124
177893.6067939882
279172.3164689507
504291.5668670567
2373541.95046025
2290978.049796716
2196382.24091404
11416273.6504953
3348905.644101208
1890544.148470549
1539898.161794959
1286026.111786054
1125774.66235864
946884.1412289905
840524.0239864934
643589.2927096303
521180.9654838557
394840.6801179213
318008.0539238049
258527.0967884245
211779.5414687051
175054.5721477306
145911.597204691
122039.7366742163
101614.8907131061
86282.92672634144
71156.99075393999
71279.77976259026
92844.95066141819
562302.7081832709
11445879.84342382
7661677.202589012
3873861.325691252
3045518.653244536
2256423.063279567
1902093.24408544
1573896.895065872
1460121.278495539
1217778.09473119
1138663.146472672
905021.1648231955
812985.0972314745
617428.8620803622
481585.6084293331
380574.7591750377
272964.1205192229
189010.4273642861
129817.8697182525
132897.7507093825
222697.2388371256
371508.8330378765
1971262.791887753
2141705.392462154
1895350.064655358
10363431.17063941
2577938.868881467
2153213.569060061
1568645.807780485
1284329.339556729
1127812.573989527
922625.6630200498
838945.6446542994
664149.0667813418
556336.0643890084
414010.817759877
326113.6823236138
260433.6310769451
212235.0807231146
174513.951930876
145229.9200732396
121274.2803784765
101047.531586271
84949.94583112726
72591.34770773655
61405.9652803601
60556.38654513281
74932.66565801884
384680.3229094209
9759077.496825503
6603717.975219902
4199179.130991774
3727151.808450411
2540442.300887214
2151548.096002785
1668842.846181015
1470010.39666269
1224433.075531376
1130894.247550338
901261.6257166469
806288.5584078658
617855.5952536463
478148.9490944737
378213.7493795896
272568.1863481791
186199.5111331549
136272.363322227
95900.81582104843
100834.6158935823
174417.4810915799
274887.5703500016
1651456.360917194
1968854.898334205
1613592.388432557
10734474.99072927
3805933.562976594
2027393.679014583
1727605.187128471
1319167.495282663
1152557.701759255
928807.1441793568
831895.2612312778
664644.8844185506
579344.152455163
433042.324581044
340490.8469791423
263422.3808985053
212662.0947904996
174729.7952180234
144475.6369811581
120520.6217492861
100183.8523613558
84353.01063156771
71422.43720058011
62205.66255067704
53537.03025903172
52324.00921674909
61631.8893412403
273678.7773570828
9575382.099732816
4651782.59452745
3586471.542931724
3718879.799668764
2743260.621592663
2398275.308807352
1831662.530703458
1566851.337815935
1245736.882350967
1129337.474242158
893301.6692967904
794783.0811198101
618288.0403907109
475548.5078381425
374926.7374428767
271680.7937581145
186128.7778558137
134250.382500736
100246.712080301
75591.99846793634
79403.98863611648
135814.3832059432
204503.3612051082
1360593.429032313
1775240.202392392
1367331.869974002
10377741.94393712
4009873.174357028
2355237.083596346
1780248.610102483
1397513.855670806
1191814.687093228
949235.4783429966
828662.6018682127
664579.2253363915
580383.5268741453
446800.1839209603
358271.5843030358
269598.3544355467
213058.1556927955
174517.6115237198
144174.7319214694
119791.2042134383
99316.99834779193
83533.05037962498
70765.48984944033
61206.37632026421
53753.45296245044
47424.40930294035
46101.9050968411
51941.7706017222
206578.1282329582
11736732.6477886
3531954.537440308
2965018.53390834
3147430.149451589
2592892.43361121
2643611.605355322
1920662.818100475
1697978.846080927
1296175.931717672
1129021.862645251
884713.073904048
782729.9941182951
615086.7293006161
473008.1030627859
372256.8516596054
269825.7921088759
185272.8868312827
134330.3760933502
98734.17319079569
78364.60582623095
61946.95688272782
65250.87658986344
107571.7040430508
154905.7748432434
1110733.574213826
1580357.142689836
1158670.730406047
10210660.7249226
3922479.417819213
2399311.196295389
1880142.350344531
1430241.013520954
1246265.549943873
982944.0770922785
843988.8552520217
671338.2182789848
577896.5640519563
451666.3488752323
371871.0863105466
275355.7959703379
215925.7764070106
172810.3092832445
143504.4571580574
119087.9097998613
98492.33857303309
82748.07135342914
69965.168112004
60579.09037685412
52844.40585460354
47277.08838348434
42461.66690608206
41376.60287727191
44969.92592200665
163980.4934493718
15465078.79730053
4358584.568655215
2927099.902794712
2803017.767549722
2384400.910076296
2394856.373745599
1905902.602077208
1779899.286345733
1328098.236949262
1156023.327760942
872278.0492107481
759898.3822324583
613395.1104254039
468366.6607846238
368987.5616303639
268434.3871933948
184188.6826726442
133642.8058488329
98855.0290743263
77487.67235172591
63424.02319476395
52818.29956015885
55690.82966927336
87881.21242156494
120658.7558660008
902919.9541891954
1385596.469751426
986537.9543979989
10205858.05300776
3764968.975515718
2367542.307949193
1882142.085796911
1457985.967511732
1288299.495792643
1011974.913110658
877092.6498069542
684563.2867174421
582138.2980076644
453935.2300871499
377586.5311727139
284869.424968903
220530.6863376672
172136.0803766816
140841.5266893069
118076.4983919275
97579.28046171118
82023.39768902189
69186.83978161159
59871.13225005591
52206.95773494632
46483.13145982244
42078.95266150268
38353.10462224723
37475.36301045382
39956.61714533311
134803.6676834199
16752136.57172378
7415160.790161349
3880706.041126885
3418101.980119558
2382168.146371696
2276688.586194606
1755858.752287033
1746307.862331997
1303967.285558521
1159649.407346423
874914.8055795376
733216.4657885523
611999.8594350277
463210.4230553209
364586.3765230428
266796.2459046435
183232.8216472345
133072.5599769874
98514.70788287555
77641.01660241054
62913.2376086419
53714.13484326658
46477.44732846791
49122.83808151193
74547.24414183573
97374.85989566043
729417.8946750668
1213141.704201472
830939.4375456221
10207326.28117722
3702827.513258206
2333797.335473944
1857721.86321286
1438551.744182798
1303729.606145824
1026042.699949722
900290.3089760804
696989.4907224309
592140.3388914675
459606.1613136303
377972.3004174111
289459.4954950915
228860.6614475957
170847.3828278735
138912.3020053096
115146.2512901401
96294.02834620397
81271.13716483534
68447.96918621691
59197.76805669092
51523.50776927184
45903.32289742452
41318.65776598694
37815.75085177449
34661.99154355787
34056.68516173917
36263.31040539539
115267.3787190034
9019424.168557279
10397046.16377412
5347454.681505693
4876695.769637122
2803997.488082032
2401052.035365199
1758665.822728471
1523527.480592434
1233617.488018256
1122955.164365759
874654.3257386043
720952.6421070744
607483.2124778159
456302.4496853154
358910.412865061
264435.5745638015
181981.0452859115
132452.3516895983
98161.1275763731
77423.75984022512
62993.4657189761
53433.59830093117
47064.1904360877
42118.62725643711
44612.50910629723
65653.85313667677
81594.75070202533
589636.9973625753
1037053.550549325
757808.8523401049
10199280.53017218
3676505.341509618
2345125.348792047
1837243.455392008
1416959.223471153
1268500.534031308
1020050.9675826
912550.3082707479
703942.5366973071
596315.9322556662
462754.2351117203
382369.9484388208
291284.4810993588
232443.0018069962
174877.5893100141
137132.639179431
112531.1576605907
93494.51013253849
80131.75236235646
67682.2693965662
58555.81223830953
50872.73833597915
45318.20525901606
40783.95944449921
37067.29706176792
34020.60755241846
31406.23541228558
31061.89226631615
33527.13373230588
81171.02840259162
9004886.811254907
8313895.048817401
5297904.184368315
7345480.761090023
3250092.103884788
2993458.025162441
1913289.333393465
1518380.113813597
1203670.943384158
1031691.181506543
878165.2654763717
710446.9966553152
610584.0044234575
447616.5829681323
350469.7274865037
261059.2402870123
180418.1703984961
131756.2089324172
97814.95475237207
77232.65532246078
62875.24605255891
53497.37095239241
46870.625774902
42593.76297122811
39130.7967281299
41554.75087877391
59332.0328461802
71128.84759505803
478777.7602368336
970081.4941574099
829221.5951409318
276579.7060386052
10163501.72922487
3651681.027921477
2317474.390377345
1861906.219580302
1410008.548460008
1234662.611272925
1001038.373958039
902278.8864730177
705535.7933362749
600429.0772139216
465640.9811032686
382967.1707968132
293278.3962376506
233697.1906629645
177583.0173134535
140057.073454541
109914.3100503384
90891.03867475106
77421.54462793986
66477.49546766713
57896.60937680199
50228.48367116416
44767.611960182
40242.91925342445
36559.571045124
33309.84203011337
30740.25777383992
28807.12837679527
28995.87204599198
31313.40197768679
49760.51638914016
9058098.766929058
4992484.116604234
3065605.637634752
4228975.025455716
3232751.152119621
3467355.348928261
2064415.377210011
1623272.045678555
1240721.568384601
995841.529706726
886257.6488329441
695464.6123218271
604735.5110103292
446164.5990754826
339162.2396940836
256626.9861521624
178123.3925726592
130805.9604463229
97506.25728926477
77024.9767742244
62740.61678460716
53432.18400471997
46912.50845245786
42458.27625340803
39565.12004362956
37144.80046020381
39179.50388211311
54412.39930163394
63440.78015427022
359162.5687667131
819073.3349872112
795323.4441061496
202300.7562319259
10689272.22357083
3598536.850479241
2253384.037324618
1843110.941165832
1418967.08721134
1228795.361928606
987874.3827264907
886488.7018848315
699042.9885160705
602899.4249347221
465820.5728429283
385222.4698253496
294304.7885315503
234653.5514432873
178179.7018538207
142070.1234318382
110941.764655468
89078.3627505655
74777.56541089115
63839.23013445435
56726.26532665391
49532.78381533117
44219.0324610219
39724.37652863233
36045.64744630186
32831.25282893963
30084.24111945663
28198.64714268377
26987.19518605755
27122.84579408242
29161.34024258708
38322.28278617417
9227095.998046244
3927802.070690977
2480113.180855845
2298374.20188116
2117105.300228762
3156610.598169685
2061853.624287584
1825000.245257354
1288475.326381783
998634.179578506
859564.3590892912
669359.4525555754
585174.0120200653
444244.0092372856
331512.7823128346
249513.8076376286
174711.3567859032
129620.8196839892
96981.76703986587
76844.97639100005
62634.76385338824
53330.02326457276
46861.69722941428
42480.67022499604
39449.15407535997
37583.05463620651
35921.99546692977
37522.2660057926
51039.20317486203
65466.53903061631
453057.7984330328
129307.5022742884
827560.0896406608
796157.2545341795
521387.3862594547
81623.99806816906
222609.0927825484
10723850.30401747
3651662.675142934
2224875.356576954
1762125.009595617
1389801.802485869
1241874.742651379
981733.2219273366
877327.0059350797
691962.9009872684
597371.5541542155
465165.2549748525
385023.5075043159
295162.8209080573
235482.5090357061
178927.7180918379
142395.3625468728
112153.6748082665
89729.1305877197
72304.51677567467
61055.61112209409
54054.15586137509
48313.00210738073
43566.54318841834
39181.27797387283
35541.73404411775
32356.99773810093
29652.50951962197
27631.298805162
26258.59498850037
25302.09747170568
25000.27160790005
26399.16709318988
27828.45629843821
9674283.291519899
3994948.707619071
2388707.72757335
2060361.155499329
1657098.19723621
1744303.787821686
1669154.488485684
1827960.010320318
1258218.386075149
1033805.465557645
827630.4631192114
659451.367265544
544863.9902229502
441059.2177349205
323208.7888075603
244482.1739917757
169721.5789941107
127617.572435469
96351.79540327874
76531.74835340392
62531.80575366821
53261.46838919806
46793.62514551874
42435.59128453017
39464.33197931966
37480.3311291518
36307.82679705051
35339.41618449338
36726.73551647366
46089.06879454743
64145.9013676924
51312.32281222974
306950.705491688
90282.25985244362
638945.7586579054
754230.539063326
462233.9136233641
70295.09674146523
118953.3449414337
10417859.52496557
3667416.405841839
2239811.336692092
1738394.498145213
1370087.71305464
1198239.945993917
982523.7445110085
867450.6757606027
687187.772465751
592690.6719978326
461219.1006050491
385543.926140299
294210.2113212583
235980.1613645779
179208.8119600373
142723.2912163982
112341.4552429189
90634.2889712458
72695.28119050454
59066.32706600235
51292.00657514857
45709.86921428606
42334.91867339451
38476.05619854666
34983.07693072707
31876.48146485627
29228.88997897732
27261.83448244739
25605.0538276599
24511.95373797257
24479.11291455253
23892.27627137888
23505.97470126696
24969.42758776047
25325.09911070015
9581493.539701495
4099184.804352487
2443193.322482707
2139587.992496107
1608949.322257783
1655858.771622625
1282852.582855583
1527321.811968091
1194925.436986808
1086759.574061355
796370.8945152198
658090.2500318739
516118.8139626682
433450.2310348229
312534.0246016663
237637.3666368192
165862.2589145713
124928.6548417655
95460.37276308703
76128.76479302329
62360.23114200783
53211.35576577605
46746.95256424655
42380.07841160169
39416.02213780308
37490.12408134059
36227.96012669397
35405.26446951218
35241.1663443814
35877.18157919971
40648.36602809469
55805.41183871342
46336.4293942898
341598.1286363795
114653.7457051489
75198.80577037939
665071.1653947057
585779.4219987594
719573.2777331796
197803.3043209135
41222.9846464744
84698.00653135992
11607643.59111541
3339597.109608419
2185037.5227725
1737342.915058796
1342908.26538465
1199602.456646378
961963.8543276504
865182.6208639534
680519.0174891279
590119.7655198207
459596.6394796725
380955.2097010365
293404.5655901664
235233.7182577395
178949.5152078352
142840.3936473995
112436.9574935332
90763.43063462041
73040.85872322711
59516.84908583973
48906.43673453794
42863.03730060298
39500.52468323929
37119.58963236237
34239.36405956467
31316.35214705658
28790.0913828188
26894.37281955486
25114.18609241662
23843.87021084578
23341.98017708102
22279.69220417968
22095.57605110619
21910.30152401934
22699.06697746498
22581.83128136074
9997752.650341166
4137047.749142779
2459558.399668372
2130965.601357198
1627517.664965867
1692360.809630569
1241202.793492174
1208768.308085847
1028295.69821212
1054333.056343332
790392.0219646731
674730.4247909812
501784.0725250916
414142.9516990395
297376.292829391
230162.4456302591
161666.1499874647
122617.577870803
94333.21588584773
75535.39291545667
62150.11772298416
53105.93386226855
46716.25683398382
42346.61202289196
39375.68169210829
37439.82410462376
36222.54219028544
35423.13030267972
35314.4305122462
35455.96564416793
36513.33472890296
35519.65546103703
41565.04146138487
46841.31870530096
54799.42700425811
182321.5164631913
86944.55541463449
69893.30638376124
617715.4725027443
521049.6047249816
693576.320982205
114685.8823324684
45111.08141158627
68048.36231699224
10194236.7667587
2516738.04518487
2032340.104194706
1660073.057004164
1328442.123650989
1164721.098892974
949294.0300082063
851105.407464462
676625.6090695944
582897.7652286108
455496.4124787764
380624.0931154338
291499.832351138
234720.4601152363
178544.5169584703
142737.3974186084
112410.2385305764
90860.87876665645
73223.91384730487
59654.86160543383
48938.39721264184
40648.74027197769
36765.3035409618
34093.69798180512
32881.66582895129
30543.82061203412
28254.37483729081
26479.07624775647
24558.15472117735
23495.92524568838
22666.66901237094
21997.38307458694
21729.25597891015
21539.0959757318
21403.14637120499
21055.56605004653
22408.54959749055
21146.46893952983
23406.27407532661
9989101.973263821
3703789.430910496
2416571.153937619
2076087.506998773
1635388.978769312
1612602.338370844
1235731.089096983
1200412.917679186
931238.9666055077
934061.0386762629
765449.3782931358
682911.6177012241
500458.6917072748
407522.444349627
286159.920454641
220379.4772454789
158150.0846222562
121117.9686025889
93405.4620528751
74830.37958310386
61869.12547726791
52960.23385021748
46640.93702967119
42315.4051467396
39347.81566408045
37408.18719149334
36175.07630623256
35400.20492642654
35341.25311049187
35708.67714691062
35634.60492230911
35667.62510280652
35513.54470689933
40048.92037240804
41509.78178107116
49558.97619406135
138088.0821968385
85318.0524118654
52189.79983121376
293573.6894155212
654869.6804456322
600117.9592180781
222711.5680414111
73782.31259490899
36997.10400684913
9672820.945928505
3594558.816398996
1871374.994580737
1563852.897983933
1302232.201655848
1134502.98519742
927497.6258972982
829580.7216879827
666060.618530502
578152.2204637169
452509.8668573129
376008.30820299
290151.6497256428
233280.0864914138
178451.8064851758
142567.217823667
112406.4790142344
90932.03102412839
73320.30188212691
59836.79341157108
48904.34946936998
40680.94323886769
34272.51342707727
31546.40896064579
30197.61201954695
29188.95571417731
27479.01842207549
25924.61873826535
23955.19546975939
22765.57675691265
22800.94721140508
22408.15130762518
21327.65420891771
21112.10785244438
20796.76759873859
20591.62890210563
20678.61593262354
20631.50165575682
21467.33984046523
20460.98882250515
21693.84179416759
9860934.297421414
3477136.113803726
2304414.262114673
1968349.193293699
1579248.77562752
1622116.012250522
1211648.878794529
1194311.443917468
914399.9101694465
853131.5616382555
702416.031867284
673441.6852543076
499455.2770638002
406340.2715263438
281660.2838482207
212143.4043796133
154574.7719355809
119657.427361185
92948.42285491679
74617.84493546745
61617.32964613193
52793.7511264612
46543.15349177262
42250.23452135226
39320.85254877483
37386.31581962133
36149.98069747237
35357.83808922544
35297.08887533367
35764.57231678975
35661.1439420777
35758.74175242858
35512.40741339907
35470.4876362841
35489.21285096846
36708.6363142237
39180.82417264075
42260.77087587744
90944.42421765535
81619.28625213414
44679.20927811582
216058.6465540179
635176.2731494374
558290.1848702898
134458.6043579729
63430.84778334422
35361.59848973899
10072376.87405257
3483797.663815653
2229394.008309019
1551706.681288584
1263045.226789973
1114725.830051011
908096.9363855063
810460.237231329
652930.7302823775
568781.7241684585
447896.872822003
374249.0664349181
287628.2538096621
232212.6719692241
177775.2035566613
142612.4781174891
112329.6702301728
91013.31293397488
73407.42805992525
59939.81562822333
49050.41208413901
40624.84546358668
34015.48297775278
29048.18898149642
27591.6047071984
26778.92860879443
26138.56074828807
25072.13311824539
23230.361544037
22503.45499867672
21889.16799006799
21413.85618414914
21269.93013629092
20761.54995310725
20570.68818319698
20420.17232079404
20185.72695148123
20262.98936965853
20475.6929441252
20322.84090164715
21317.74989346241
20191.81187017367
24048.9567505152
9909200.07151562
3376657.952570086
2268796.50984543
1918151.585111992
1561917.612954268
1496107.119519201
1216919.090463391
1173291.127753497
906662.2914133046
844696.0476715008
677847.2496297706
618949.9689483506
492164.1725915009
409252.4516652205
281334.5372127934
208588.6986292075
151610.1191263542
117391.0764049415
92346.73204274561
74767.28637212633
61775.42625549397
52706.36805316565
46442.77154876367
42162.39948426789
39260.96484969151
37361.54991122065
36130.93966333292
35332.35076658302
35233.49337447818
35751.4829661172
35699.69238025409
35561.9004572584
35583.84373792658
35409.72015085155
35268.75948329324
35317.00874301028
35946.33855323197
37234.42328264089
38635.43280192513
103651.9110474209
64838.7466955041
39632.72311018314
45342.48547236875
223301.4949583856
441608.7149365598
593501.4818068902
275431.2187832034
76564.71799997822
60780.00365106768
48220.59513436646
10006251.69820172
3597790.610191332
2160860.473316255
1715187.158281436
1261176.413667995
1090350.328427569
893318.5073073608
790794.2090069023
639740.2221673367
556658.9511188056
439941.8151201805
370057.0403148481
285104.0197643376
230335.3675016013
177041.6907034784
142209.3713393921
112342.0750690754
91050.20828293813
73516.3966681366
60038.14705786574
49143.8571120815
40708.12367747953
34081.21976014323
28850.54714984715
25096.62441838253
24062.53192418194
23932.58540204636
23747.83756863899
22316.02746657143
21451.72094435536
21302.8376302428
20757.93296868952
20178.60803420153
20040.93560098964
19990.61151571905
20088.26385317401
19926.62283249766
19884.1134014533
20066.00560869576