/*--------------------------------*- C++ -*----------------------------------*\
| =========                 |                                                 |
| \\      /  F ield         | OpenFOAM: The Open Source CFD Toolbox           |
|  \\    /   O peration     | Version:  v1912                                 |
|   \\  /    A nd           | Website:  www.openfoam.com                      |
|    \\/     M anipulation  |                                                 |
\*---------------------------------------------------------------------------*/
FoamFile
{
    version     2.0;
    format      ascii;
    class       volScalarField;
    location    "7000";
    object      p;
}
// * * * * * * * * * * * * * * * * * * * * * * * * * * * * * * * * * * * * * //

dimensions      [1 -1 -2 0 0 0 0];


internalField   nonuniform List<scalar> 
18230
(
24452.02066355612
12434.29419654753
28237.5606062252
24626.85140879992
4711.846243425906
12708.3856519612
20608.85169535015
28259.3528487447
24587.39295271002
16702.36408277036
5026.542864457903
12764.36828429732
8876.787424742037
20601.71342258647
28241.99478522119
24604.51406475026
21844.71296148327
16935.57669464497
5243.961829564492
12826.43538968487
13515.59313178205
9085.762361484311
20632.19281001871
28264.92869133534
24571.03275740161
22462.48495041511
21912.91005178729
16986.0765459481
5471.520464390945
12964.31028544575
30184.93028449232
13938.95585238837
9218.088444200646
20716.36054186618
28232.90234936605
24560.82633015314
22967.60769951632
22516.08196460276
21877.58250803644
17141.51065578019
5737.117653751882
13157.33492956339
41275.87545116945
30288.10929806201
14171.32554853574
9363.965297635546
20696.08209270916
28226.5190315205
24620.99793275999
23623.46800190896
23025.96718572226
22469.32376379555
21911.08267613875
17311.42592134142
6047.410831938811
13296.59330856107
42539.43218400147
41341.87331798087
30446.65759392982
14401.07596747039
9536.414511888604
20785.58697741268
28203.88157903487
24626.94295644877
24373.33988867163
23689.9629704452
22972.43792678867
22491.51123710655
21919.33529321704
17492.41702911211
6392.002363379488
13448.53069162764
43400.84372303591
42546.16334168563
41291.47884046926
30680.2989425466
14728.54989277209
9739.810679854829
20853.1846925123
28173.69422838141
24674.88337158738
25226.19090826613
24441.56201295492
23627.69553485333
22998.62937870257
22491.64958204646
21943.41317649133
17736.19859711063
6784.300788990552
13589.48168977697
43528.70825362534
43415.39919332376
42554.6645561935
41340.8438727828
30773.09795899946
15073.30729176253
9953.491231704058
20947.54329854012
28130.05819701135
24706.50470129473
26256.73220381235
25308.23738647372
24377.04452745007
23655.0018008597
22999.17811623789
22507.8559814193
21959.91578977038
17977.19421926863
7228.707513763265
13769.14374631187
43433.67484050494
43540.74960866887
43390.28180978844
42556.39164661185
41317.58716218187
31080.44708158438
15543.03383122006
10196.75850453604
21056.11764870692
28032.44797274562
24714.35926790575
27382.85865731253
26343.79012672648
25228.67666240617
24404.13750085743
23657.52482860421
23012.96988650626
22519.81407079279
21992.16498292388
18249.8965137134
7736.189422723181
14055.10450018988
43240.41308942388
43458.92468895167
43521.99537995791
43404.21292876969
42568.01725406442
41366.08087521739
31211.14210369208
16023.81306339916
10466.76961713251
21219.12517891361
28042.15936636217
24772.83357178692
29286.28547495104
27482.452839186
26255.13609303393
25257.84613512901
24406.15373570348
23672.34035991862
23025.56614944876
22536.2779977806
22021.05979089417
18532.19135927409
8301.265129144016
14337.3917095083
42954.81421123313
43264.10390993506
43430.41107737458
43538.86504410456
43395.57564968389
42576.48218344882
41370.99969860844
31502.58451956476
16537.79308115546
10748.68303053006
21389.8514478645
28055.76453456562
24848.58173083951
33949.14205550308
29389.46605191952
27374.08139511964
26284.38680653091
25260.47233398914
24422.81680491783
23688.23152454931
23041.50490432381
22554.3221593079
22059.3281175625
18858.14248148925
8933.984157225121
14671.13901940208
42786.23794354973
42974.49034457096
43233.22950540743
43438.47093332084
43524.71607013954
43406.06775026226
42588.0378731988
41432.26492271437
31811.45322182925
17180.19011584865
11031.27366885839
21637.60733682768
28133.15205458736
25028.0196321396
40779.33432482884
33969.4216242285
29290.95981733437
27411.55735237746
26284.80217104392
25274.21013586021
24431.54854690601
23704.51478112181
23062.03716707087
22578.78371198276
22097.37189153368
19192.56657656567
9645.592824024598
15031.63181746483
42485.49931265455
42793.7784513598
42952.50456027744
43244.74065276542
43435.51580376263
43540.004582021
43401.12432316104
42600.88535641983
41420.25460754801
32193.68283014316
17860.40835333624
11304.52365420408
21950.15968413421
28175.00058387083
25296.09570530054
50279.45608248313
40808.06317130548
33942.70503214973
29342.75406816692
27410.38569740118
26296.04891718453
25291.32130638479
24454.00508400278
23726.97306126328
23084.55788807381
22605.63125866957
22143.45596766078
19531.52192363393
10408.16951285895
15396.13056112274
42018.77265200643
42497.48995219346
42796.68953595311
42961.29634145362
43238.34269673782
43445.50669813238
43522.01893470044
43408.81012314741
42622.66443882719
41506.01349514589
32539.28033717836
18630.4297677984
11527.83330259922
22325.88411883663
28233.72396910642
25736.99428007096
55725.63415177172
50276.16831070078
40800.48413610766
33975.93499379518
29307.4788983844
27426.1509845845
26311.41188019796
25307.11156903049
24472.57891343008
23750.98742475394
23113.35341718303
22639.09013152772
22194.57153612572
19889.69978785597
11232.64425821847
15807.45803505289
41224.55701910031
42023.81444478486
42481.19362910955
42791.42063789131
42955.70602159356
43253.9366558908
43430.7044899351
43541.29790107816
43408.4903548686
42635.59870387496
41512.27639532746
33022.34296152188
19468.12334053848
11587.07594646193
22848.11860568147
28321.9212709477
26418.17687716768
58075.05723512515
55739.99895433521
50283.38216825297
40785.89627084867
34004.14978468863
29347.19095092978
27431.96966441977
26322.72339827899
25328.00303219748
24500.69815448321
23783.03260475459
23148.14347438745
22677.87374581957
22252.97213312515
20237.27240806217
12081.27916736302
16289.14022393345
40303.24819902899
41241.65261906921
42016.14416807765
42485.24878987384
42797.01980021242
42969.4907433648
43229.87894804001
43454.54195543635
43524.8030864117
43420.09400030645
42667.03582998626
41586.6660912142
33489.12984235207
20345.06864744619
11672.01211601357
23537.69111260647
28433.20245970535
27343.82398317232
59808.90354299027
58067.47238830109
55724.76666517331
50295.30320395587
40817.99558388148
33995.80048364968
29344.79053205517
27451.59375927829
26342.84471304302
25353.52589270611
24529.09277836122
23819.12889777974
23188.61832185611
22722.21709273319
22319.17381495898
20582.99628427839
12939.88362972089
16883.10431987615
41404.80891463915
40303.94869409964
41215.5959157422
42017.99544207953
42480.89751026366
42798.22065988338
42958.0592024697
43257.74040782166
43429.97950415191
43538.04091472914
43415.44988575703
42687.73003316605
41636.27278280483
34055.2293485374
21270.46487993795
11832.5130356376
24413.54378790524
28580.28740811775
28453.52683405984
61446.76974772829
59797.84412723769
58076.085681796
55724.36987165515
50290.51940548918
40797.40606685204
33998.18831759406
29379.9365358302
27465.11266572458
26361.60090706686
25382.25973981027
24566.7458639226
23863.65822784831
23236.3703225485
22775.85530024008
22392.30508928313
20914.4935037379
13796.70456634666
17559.75493702195
43061.03199199856
41437.37487020925
40304.23304850882
41221.37189875465
42014.20260518687
42489.2208638127
42791.88550756299
42973.40948643928
43226.9507455659
43460.01370330444
43524.61322299853
43421.17601039754
42715.48743378133
41713.78092391877
34622.26392257303
22248.46156213223
12103.25161516458
25595.89824317452
28855.70638106762
29797.77870174088
62976.472789712
61437.07996677906
59810.43173936378
58073.87715066873
55716.41956462641
50301.13752336103
40873.05862347691
34025.08058457325
29377.82957233855
27489.92564841672
26388.38373301044
25419.61189118452
24611.03584870237
23913.80690889135
23294.84571652102
22837.06919718148
22473.279212911
21228.30846118168
14658.27010802291
18285.20037443771
44107.97065651213
43076.63846829222
41401.01390229282
40304.54008708578
41225.95329754846
42017.88534995003
42479.85612667206
42799.91409065278
42958.88519364148
43260.01301379045
43425.43423472033
43525.90429630491
43427.723180156
42751.99413962305
41769.68377307346
35234.9875841527
23234.72738156701
12570.54306716351
27010.5967078231
29455.14631485648
31512.45653644542
64345.48877563659
62958.48648035595
61447.28270633226
59811.6369944074
58078.00911082319
55730.05567284752
50293.40374546533
40835.26052282797
34056.50373052603
29426.07448256131
27513.68151952509
26417.53694367165
25462.22596056029
24660.63234254343
23975.75033377701
23363.78962780678
22911.30249555079
22563.88779821824
21527.30112535977
15502.03718112789
19095.81834679769
42452.98298155107
44117.46054970329
43059.86781444715
41425.61585284142
40305.00475850572
41227.62882242956
42012.85992081304
42496.1121138601
42789.28240451276
42973.79778075469
43223.07213898874
43423.61798060627
43523.85633212642
43435.26583223967
42790.93639285727
41901.74978029169
35849.82927975929
24209.86414204734
13235.5775779672
28518.63350865793
30377.62096896495
33550.7531798154
65733.74718792431
64339.22117156201
62978.20573017155
61441.08428926033
59804.96549984229
58069.7591209043
55724.83131384794
50317.41028358541
40876.22559918297
34060.83929378013
29436.66296788153
27545.04410850889
26453.604060577
25512.93440979219
24721.71303658815
24047.1608453372
23450.74003125178
22997.51312812014
22660.79168110603
21807.60188286373
16316.83386822456
20038.00730135586
40484.96661659085
42453.38820007907
44105.85674135632
43063.20546539511
41399.95807401682
40305.47435549509
41214.23097799015
42025.73404032712
42473.19109348029
42807.35439378684
42956.45446474681
43218.87151511562
43416.10386578696
43523.27263243308
43443.01474165302
42841.61356826527
41973.4711611239
36506.21401581814
25242.26801126742
14016.97516037864
29884.25081910325
31562.77297124984
35754.97672535893
66900.76818551566
65716.05735417738
64343.83772457102
62974.48554886207
61445.63416405582
59810.63631610102
58069.49114534322
55723.41130297754
50295.97187096984
40893.45644271232
34099.57342978851
29490.7458275963
27580.17217467604
26496.19930857555
25571.14186043698
24792.2220651577
24135.44126539329
23555.8966868181
23102.63191577583
22774.77110172838
22068.83004526245
17087.67478593056
21113.83526578599
39498.40796163725
40486.62938767993
42484.86373470064
44106.71046286362
43068.98790469034
41429.0784432567
40306.06100742955
41230.31237872656
42007.06718847511
42501.77496146329
42784.63981986162
42946.66896440244
43208.11504971969
43412.78705166905
43521.05747374007
43459.8032760377
42894.67385239065
42100.0142418437
37130.8036571702
26375.42409959577
14901.26979507172
31328.86281723021
33036.58761560667
37860.27149249287
68123.1249443478
66883.91990684748
65734.17063092956
64341.98757541818
62977.76672166281
61444.619585489
59806.91376469768
58072.54839810584
55725.29775007113
50332.39846582894
40915.45929699529
34133.48224937912
29515.92641676718
27626.14419419354
26547.45392116165
25637.77321477961
24879.40386112168
24241.02302609223
23682.93614269343
23229.03745424179
22900.13370067411
22313.53090541858
17801.29097219951
22406.1786178779
41864.43997652003
39460.83934622221
40478.56769743925
42448.12611828424
44105.77347392341
43066.05797813429
41411.17718295789
40306.83640585237
41208.7079565462
42025.77967477444
42470.26219491623
42774.79764192727
42940.39914742471
43202.12726228657
43406.55831702259
43517.85053653078
43454.53764094495
42955.4266438903
42195.4825567316
37747.81650048085
27564.62352619899
15849.30194749641
32899.67079521122
34694.70116123628
39791.12990182671
69152.75840568458
68117.85792340203
66905.58530987482
65733.12868802095
64343.78283958443
62974.21460280207
61446.31040642666
59806.67519604318
58074.89247624033
55719.72573910814
50328.2401300851
40945.63108026594
34177.07399109766
29583.36985799103
27678.4854071024
26605.78701524153
25719.06185457981
24983.09570849041
24367.26653003508
23835.94602102378
23380.29203152589
23049.02658557352
22546.02497795841
18434.28668684547
23983.25057078862
45154.13806880489
41930.552979047
39507.19403858243
40482.72367384929
42451.31913311376
44105.10326579726
43064.58350176094
41438.33891164001
40307.66571405823
41222.68263850208
42005.52932754609
42469.04951703846
42767.27663155803
42936.91279802666
43192.05796167629
43408.34816227605
43514.74274999953
43471.59520370726
43021.45750674183
42326.63810128433
38335.01430314359
28778.64745311897
16847.19696755338
34893.49610081626
36533.09612499623
41271.04971446704
70197.9406170197
69152.18114018865
68123.5931474965
66896.99599211021
65731.97645247493
64343.00921637147
62972.07065113191
61441.59655846867
59805.86924856267
58068.7229310108
55725.61999124896
50348.21683502846
40987.76296237658
34221.41662819346
29626.90657441398
27739.46060729609
26675.87125302446
25815.46218101686
25107.06644673517
24517.79307297949
24015.50937474208
23567.90389270057
23222.00530793949
22775.73952782567
18985.03338225926
25872.0226802409
47130.60606686772
45188.54821395133
41868.24627299533
39467.14602302718
40487.07169332761
42443.44163036346
44104.30968597256
43070.16760237401
41408.96746596928
40308.67022689225
41203.73488711848
42002.22691720849
42461.17828162615
42763.64861359562
42931.86844973097
43190.40548519171
43389.84625145954
43510.32846462385
43472.67066783217
43091.5095021395
42441.28527457945
38886.61796419301
29960.53978761854
17860.60020288226
36814.26325274257
38355.60254820028
42554.82315605194
71218.89966730587
70198.83471722766
69150.86156764606
68121.42946310811
66899.39571753057
65727.52411719204
64342.47207426459
62974.83830021509
61442.19781548112
59805.17652398276
58072.59519346081
55721.09187413901
50358.49622723993
41036.7429888417
34285.58645770134
29718.64715001766
27812.90824167912
26756.95125539837
25931.10305637124
25253.27202250226
24694.04448360848
24228.19246189492
23793.11843163528
23436.86045924434
23007.87645957167
19479.12549437394
27893.21542484582
37682.34503061856
47152.3761397818
45151.59862073269
41902.44082314822
39511.14816737683
40479.00860450084
42447.15989900747
44103.93871220136
43076.77741313225
41420.24148101404
40310.20512142069
41203.52209802148
41995.24836611319
42457.30701083136
42757.43581391364
42935.78649499801
43166.38187704949
43383.59159373198
43503.03243060216
43486.32319653859
43159.00004727535
42573.56161080013
39386.6841592664
31085.09700745245
18897.83474120274
39384.06972737261
40185.14514324358
43278.49708985586
72119.71662964034
71217.91570186774
70197.534235639
69155.68778062478
68121.13396869261
66901.7329347714
65731.96388296256
64341.72022681018
62971.84327321028
61445.23528786593
59802.74357165479
58070.25499605443
55728.70316758657
50374.31604082784
41088.95744080158
34354.64351410587
29793.44242220383
27900.16917859129
26860.54128132552
26065.47831630377
25423.73603533589
24901.12863884213
24476.08538914465
24061.25922949997
23687.93198415818
23257.00711812659
20009.03082264601
30053.18451335722
27494.13232160063
37714.63465649946
47126.68902021048
45160.69068848038
41881.87133478114
39462.0017494595
40481.33089680409
42437.98299791174
44093.69800756234
43074.75500102258
41419.9819469971
40311.71751031486
41196.0113745893
41990.58929467267
42449.38986202956
42760.49386414968
42917.7747288088
43156.06755891568
43365.74132326314
43494.4719752331
43491.35575277579
43229.23892875062
42698.00162671194
39837.75024992517
32133.56689059294
19997.45009670292
41573.55138364963
41537.64325385402
43830.28414378561
73022.9745386235
72118.99589501222
71214.83383352576
70191.92013937375
69150.43957088573
68122.58924144013
66896.71655519065
65729.33173195283
64341.71027210742
62968.98227867781
61440.4775869224
59803.2942354676
58066.74452273145
55724.68640223347
50396.45398644522
41155.1726193808
34442.58663434495
29916.44112303705
28010.24700955833
26981.3718313926
26221.4679414882
25622.19142812778
25142.71510739058
24757.82631959967
24378.31145261662
23978.68926424554
23533.45211463338
20502.83385685476
31995.52850504299
24211.21051295356
27565.22959236677
37674.52715397187
47128.53532455579
45150.10461830637
41903.64773236902
39516.66255430875
40476.88731417993
42442.32515323371
44100.92702976884
43078.41840814255
41423.88840323894
40313.95544435849
41190.86072236068
41983.29745796086
42450.51901831396
42741.07473941492
42915.14948888022
43133.95104768709
43351.63237092212
43476.11014925371
43499.87146107768
43291.10084131047
42820.33059662669
40242.55368439038
33087.72937125527
21236.49798439043
44805.93390423821
42592.0545617351
42713.712108504
73863.05276965009
73022.54579787976
72118.70982615153
71220.64687484053
70197.62639064944
69144.65474037529
68118.03772522489
66896.66576626379
65728.38152670981
64339.3057356363
62969.43199412502
61439.28374115382
59802.89251791044
58066.44752235925
55725.38521652853
50424.49368567855
41237.38009654136
34540.79676341838
30026.82521720521
28141.481397137
27123.87931642999
26403.77306671071
25852.20613329521
25417.42631750289
25079.27406303163
24736.18580396265
24311.05860713338
23855.87017545995
21013.45933444337
32685.17610760631
25698.11983580489
24211.62200030877
27469.4846191574
37675.46941497992
47126.9878243368
45163.06452373602
41878.04580451817
39491.42557688918
40472.77807088133
42433.12297821348
44098.63972017484
43081.61100076394
41428.91203560504
40313.97027697597
41182.05141228399
41983.92516931999
42429.59933070595
42736.74124001354
42900.96654634337
43114.03809134145
43330.16399702636
43456.20427533484
43502.95185723578
43345.79301432312
42937.24458528593
40602.57145051882
33921.17517811827
22816.10397716554
44600.13565275168
41650.90701171708
43791.27029305268
39868.44997755485
74680.47087761661
73862.35801297273
73023.83346333854
72118.26631591935
71214.92578768413
70194.72687472774
69150.44679417493
68120.10536916929
66895.29662598846
65726.94938907694
64337.81335598382
62967.31011370952
61436.24345901042
59799.88167584244
58064.97477078137
55725.11631017832
50447.46965485132
41316.75243768612
34661.84576194477
30195.05225348177
28291.527813394
27297.01188513525
26615.46951399659
26113.8079122225
25732.55294763166
25432.55457743707
25128.22925861973
24695.24739970527
24212.60133332293
21140.41336201476
25742.00504107925
28101.47794307325
25738.66671546028
24211.77641181248
27481.59978207976
37671.28440052272
47124.87057719546
45169.16935952193
41917.13683070707
39513.9741454965
40471.67108033313
42429.69719775383
44096.84060197632
43087.8104799292
41448.32433491338
40328.04597232446
41182.20578679622
41962.67047175288
42422.45805339594
42720.41438381113
42890.61140444153
43089.16452940337
43305.01260797073
43432.9375632837
43497.2287726805
43386.12881886677
43042.88314950729
40915.1847282127
34620.55427006408
24445.27830987371
42998.9276269801
41996.26658563222
43211.7028506123
40866.89620844713
75454.76344429862
74679.64700281816
73862.03994871148
73021.08500509804
72118.81387784639
71218.55173709328
70194.28412976953
69145.54282919395
68115.62800190652
66892.32923948683
65724.89547455961
64336.03744598517
62965.79735002552
61435.33015502273
59798.29360064425
58061.4493539856
55725.84057553635
50485.22599732547
41440.75580987392
34807.5390637643
30361.70892780104
28480.00200280926
27500.38706221551
26862.8544046051
26414.09794591577
26078.93572130857
25824.03523953825
25552.42306340429
25110.0478604931
24584.38919383752
22761.45127600983
24925.12483061542
30102.99637748405
28119.2165507319
25694.21012793812
24212.41170356678
27514.42697603302
37659.79987419201
47125.18540354399
45165.28764246724
41877.86527178284
39488.61393751852
40469.22347980785
42421.98331156401
44093.63069060594
43092.83158531777
41437.8762893693
40322.53517909809
41160.15474138722
41952.76733804099
42403.42628961116
42706.59788257757
42875.43400674475
43060.91670560924
43270.44298486195
43405.03141598879
43480.26227935177
43409.30340199631
43130.79186201761
41182.54842490034
35221.7485576593
26213.86642724244
41942.24789532819
36615.8602354847
43018.69993108045
44691.37960806509
42848.06159012333
35046.14639697324
43022.20576054436
76201.09707675021
75455.9006263242
74679.48222839275
73861.50619914717
73019.21254637092
72116.55506219061
71214.87118223216
70192.9795232459
69148.17962377342
68117.30623666906
66893.99309325384
65723.37632811358
64333.4424924256
62964.03702206032
61431.79188343717
59795.59379999661
58059.71103490632
55725.14651032018
50525.70791670834
41570.00351354924
34974.29243857048
30590.99222888518
28695.17709125921
27748.95882948684
27152.07311919362
26752.28895175638
26473.1586763225
26253.52041844262
26000.06870031462
25560.29254469722
25095.87604031237
23629.43456691999
23911.37507442302
31413.41781428301
30116.9060567693
28089.41495404972
25709.64996566676
24212.9569064573
27470.83440937848
37665.18090354701
47108.65277262709
45178.69282296223
41934.6696443995
39520.97157273394
40464.01501301557
42418.81802227027
44090.97681798071
43106.31146325557
41461.65954072887
40327.89857301506
41151.56787056697
41936.89459396632
42386.28966598363
42688.66619182926
42857.85125020742
43029.34481705697
43225.33787842232
43369.83734350021
43454.87019854592
43416.98204229774
43195.3668536579
41374.63561386179
35425.32047685285
24853.06481616236
32376.1365125373
42003.62657633382
38124.24298920802
44147.7313308712
45115.52482371182
44297.94360382549
36912.78874698219
43648.91847023465
76908.3047499828
76198.57132690845
75453.91242501944
74675.20269423047
73860.86067363506
73020.14152216662
72114.62438309661
71214.16095176243
70191.3806791095
69144.71416318847
68111.82840406656
66888.95701327236
65721.28156995881
64331.72046891561
62960.77757742757
61430.64936543142
59792.931962485
58054.4582211309
55724.72849342747
50574.19017258409
41714.21915771962
35181.2675668235
30836.78574851465
28968.26362634767
28044.67334062351
27491.75556164569
27148.09600555975
26909.06158341243
26702.30059650589
26413.90639214977
25489.93470835221
26280.87167487329
25158.76131699465
23399.61848560299
23704.16777144766
32669.43348054343
31411.68857964018
30100.63509050188
28112.90218589494
25711.34294584257
24213.49471296028
27482.58491838908
37654.26716124044
47121.93692869032
45175.17978691762
41893.86383002274
39490.8765060778
40458.22752779203
42407.30748868239
44082.04636398322
43109.07163578721
41454.4908913999
40332.05603620286
41131.68855964893
41918.33747147465
42364.55389467948
42666.37629412313
42836.20556316951
42993.03276343992
43170.77835438491
43320.85554066683
43424.93882915674
43426.32701387066
43228.69610267368
41640.61096080148
37814.91822724432
28161.25256560531
33853.38368831175
44742.17636647564
40995.04993733109
34257.62454061113
45424.19296783843
45397.3143298529
45875.6105168322
44001.22981384793
29807.44505729689
42220.1894743659
77621.18027040978
76902.46865817375
76201.54941318928
75453.23178208627
74679.98950853545
73862.08608809939
73020.22844461496
72114.82105337612
71212.68144834154
70190.12878037225
69144.94727015842
68113.579147789
66888.01426185781
65717.83300139688
64327.71957568009
62956.15132328137
61425.02759462727
59789.75694766894
58051.25120463246
55723.28281780351
50630.08896221968
41897.84118742971
35419.71661063722
31157.13003853189
29292.60332645347
28401.60629181092
27901.9200736878
27591.07676762756
27387.60377532349
27124.31674682547
26983.60478442067
26010.20759087265
26781.61885612477
25583.37067734488
24072.2395063716
23768.54708150079
33999.69194081253
32671.57181054696
31414.04189394218
30104.73020410572
28097.2567031306
25722.18844237875
24214.01185852189
27473.76437952661
37664.65325832256
47099.41835470509
45183.71738759331
41955.2072559611
39536.70929985747
40453.38802577605
42395.89099972209
44083.19957059943
43125.23336725699
41478.32641860633
40339.81292475523
41114.43502628159
41896.31087213083
42337.94520399177
42639.44268414785
42808.86921806946
42952.4025287736
43106.80311424342
43254.40177099121
43374.6063651466
43424.15616839263
43246.52422357599
40977.92124247507
42550.56782637084
36843.60696612495
33555.73227447473
27323.89842233873
44167.63837736304
42861.94199737973
34236.36900453791
44299.1697667215
44665.71699301634
44382.28880158528
44262.44306253825
35741.06929010383
42291.77615546178
78275.58235671243
77617.69159460753
76907.77458113783
76199.28240828126
75451.43386970095
74674.73907938346
73858.0413545457
73017.44904971869
72113.18446227445
71210.76592898971
70187.44536926869
69138.98584199931
68108.42942512364
66884.54064687679
65714.07848539067
64323.64060918795
62952.75210437453
61421.70577765474
59785.16136484857
58046.05688201984
55722.67719724061
50690.52629868776
42094.08214935115
35705.60751634534
31536.13936967727
29692.93217693419
28837.96167610985
28370.06231292586
28116.44366788109
27851.45409108066
27720.16257219743
27333.37299652268
25951.77978462307
26697.3573666476
27289.35839664595
25749.0809950565
23764.49658070293
25534.08506905219
23668.51557637874
35372.65422012428
33997.65658200526
32669.20726915421
31413.38547788908
30103.31027697391
28107.81953221415
25707.56801380208
24215.20473435399
27461.33245255417
37642.93945766489
47115.20399292514
45190.04688325848
41913.31143236628
39503.10230195764
40445.1944088626
42383.57171131507
44060.23070864896
43132.1651111836
41481.3799057885
40346.31621372147
41091.90922983892
41868.24786620573
42305.81635377924
42605.40755347785
42774.36456147909
42905.34434508303
43037.65744186188
43168.05244830717
43310.91714511339
43415.83946112829
43377.81084382285
41915.06265371806
42635.57444645971
37659.327542691
35764.28112543504
29238.28685115599
44390.45913091419
40572.40577480305
30694.30660530598
44358.788592176
44483.73914489304
45020.56597647013
44367.04913962564
43565.69155069625
31428.25061815464
78934.01557312708
78269.64262220015
77620.03011275832
76906.6995905254
76199.11669015269
75454.52611334651
74677.83815310805
73859.69554167119
73016.82694951653
72113.21733161726
71209.25744956097
70187.76009444066
69139.13068436472
68105.61129142353
66881.15979376809
65709.73973733855
64318.90841814206
62946.7326279653
61415.19645982192
59779.85003088385
58039.90532274092
55724.70018824071
50769.71034542522
42338.48241055549
36036.50660965884
31966.23288550802
30177.84101271794
29352.40507048069
28953.1766274462
28663.29135000391
27882.84733035644
28524.56424333031
28024.41228431051
27952.82172902661
26382.77748580057
27084.92719760032
27640.41214061359
26207.15086357569
24476.09330999705
26073.93007566424
23713.13168030392
36741.08026146322
35371.36401247641
34000.40291403909
32669.64167195057
31413.80983325333
30108.0258765648
28108.03769645109
25731.17077997847
24216.14745848031
27456.56660728904
37636.55036798513
47094.64756351291
45198.67366487999
41965.97673412299
39549.75274017466
40437.9019384965
42367.08853870359
44070.6664539804
43150.60689385321
41507.64914903249
40357.13970246769
41066.86805188507
41834.68394266377
42265.65246282754
42562.86388007191
42729.12886548128
42852.81813233811
42957.34615928493
43087.36317308676
43250.76964403148
43398.98846223654
43297.964510194
43377.50515893605
42052.62127711764
43083.20030875644
40124.88464545533
36270.43915770281
34735.47011099195
44481.44519825631
42623.15918794172
30530.86125426937
44169.02371537442
43608.0246456276
44187.83387916658
44321.31108197102
43590.58438193134
30829.69020719113
79550.05698317234
78933.31170094376
78275.4119773422
77619.74708062244
76907.3686807511
76195.88361918279
75450.96029404737
74675.33404926218
73856.08404587858
73014.66666927995
72109.67507537972
71206.62068777892
70182.88612772715
69134.41910182202
68101.73912456026
66876.91352728373
65704.88237105081
64313.16323951148
62940.97421964061
61408.68501673453
59773.62507748584
58031.50098880212
55722.25236441956
50855.00353831505
42613.92389982101
36425.01944785422
32485.19562583111
30746.52166333244
30035.93086316946
29401.86282102811
29261.24238536318
28323.93738644632
28743.11420551203
28380.89290245294
28007.53590111766
26954.14803533082
27619.98975863013
27790.16883091108
26571.15670915188
25924.93790419018
24186.72218534122
26549.08964904406
25273.74789263532
38253.34303634115
36745.82332777116
35377.68248140536
33994.91531867655
32669.50717454286
31412.40118664192
30100.49693283421
28115.00718089952
25707.01001628199
24215.49945798281
27436.04730001988
37626.19746051937
47104.41714258873
45210.33227975047
41945.42368698034
39535.84668134696
40428.24034995226
42348.71592160508
44044.95565191768
43165.81302439175
41520.33780170011
40363.03499185308
41038.34015714111
41792.85664593985
42216.21887437569
42508.575482391
42672.86899081534
42785.06987651709
42882.3675639955
43016.49362632274
43070.53241770578
43351.90172745732
43270.64766843633
43384.73234272165
42808.84349016593
43195.65388173208
40569.69862948329
38700.02223563081
37012.36591411199
44351.61681962897
39545.50353115485
33801.16825101307
30101.15947306993
44746.00600783489
44319.80226252173
44566.37435243661
44216.95582079579
44089.41401022267
43750.02726077036
39069.17604111748
80178.42933402592
79548.63923082728
78932.98547450562
78276.64167072681
77619.24410620789
76905.53253997688
76198.31331349695
75450.15655585013
74674.99257209402
73856.208247195
73013.75480659466
72107.55375582694
71204.06842571535
70179.92337674333
69131.386562147
68096.81982007195
66871.75386426762
65698.24869281797
64306.47772324968
62933.28856519566
61400.28050105038
59766.09374387952
58022.77958912895
55722.59963566783
50950.34987450406
42933.26668885552
36893.47872563588
33069.6977916223
31478.80093035598
30512.26933822608
30144.1613964822
29752.90116968388
29472.31655384472
28913.50494493335
28404.20539963484
27330.46691897376
27908.87160548861
28243.89901596885
27172.36458939153
26488.99025935246