/*--------------------------------*- C++ -*----------------------------------*\
| =========                 |                                                 |
| \\      /  F ield         | OpenFOAM: The Open Source CFD Toolbox           |
|  \\    /   O peration     | Version:  v1912                                 |
|   \\  /    A nd           | Website:  www.openfoam.com                      |
|    \\/     M anipulation  |                                                 |
\*---------------------------------------------------------------------------*/
FoamFile
{
    version     2.0;
    format      ascii;
    class       volScalarField;
    location    "7000";
    object      rDeltaTau;
}
// * * * * * * * * * * * * * * * * * * * * * * * * * * * * * * * * * * * * * //

dimensions      [0 0 -1 0 0 0 0];


internalField   nonuniform List<scalar> 
18230
(
3455.619912797356
3373.124326848203
3487.256467933901
3387.862659605251
3306.984634164904
3306.984634164904
3550.02347306513
3418.878890131276
3321.433980005148
3242.141798200887
3242.141798200887
3242.141798200887
3480.415169671696
3480.415169671696
3351.842049148309
3256.307823534459
3178.570390393026
3178.570390393026
3178.570390393026
3178.570390393026
3412.171734972251
3412.171734972251
3412.171734972251
3286.119656027754
3192.458650523979
3116.245480777477
3116.245480777477
3116.245480777477
3116.245480777477
3116.245480777477
3345.26640683554
3345.26640683554
3345.26640683554
3345.26640683554
3221.685937282112
3129.861422082333
3055.142628213212
3055.142628213212
3055.142628213212
3055.142628213212
3055.142628213212
3055.142628213212
3279.67294787798
3279.67294787798
3279.67294787798
3279.67294787798
3279.67294787798
3158.515624786384
3068.491590276797
2995.237870797267
2995.237870797267
2995.237870797267
2995.237870797267
2995.237870797267
2995.237870797267
2995.237870797267
3215.36563517449
3215.36563517449
3215.36563517449
3215.36563517449
3215.36563517449
3215.36563517449
3096.583945869004
3008.325088506664
2936.507716467909
2936.507716467909
2936.507716467909
2936.507716467909
2936.507716467909
2936.507716467909
2936.507716467909
2936.507716467909
3169.548040203228
3152.319250171069
3152.319250171069
3152.319250171069
3152.319250171069
3152.319250171069
3152.319250171069
3035.866613597063
2949.338322065356
2957.718296305403
2878.929133792067
2878.929133792067
2878.929133792067
2878.929133792067
2878.929133792067
2878.929133792067
2878.929133792067
2878.929133792067
3232.939001007292
3107.400039414929
3090.509068795165
3090.509068795165
3090.509068795165
3090.509068795165
3090.509068795165
3090.509068795165
2976.339817252022
2891.508158887604
3016.872662231511
2899.723819907258
2822.479542933399
2822.479542933399
2822.479542933399
2822.479542933399
2822.479542933399
2822.479542933399
2822.479542933399
2822.479542933399
3228.083674783096
3169.548040203228
3046.470626877381
3029.910851759966
3029.910851759966
3029.910851759966
3029.910851759966
3029.910851759966
3029.910851759966
2917.980212992179
2834.811920478043
3077.210115476141
2957.718296305403
2842.866490105154
2767.13680679745
2767.13680679745
2767.13680679745
2767.13680679745
2767.13680679745
2767.13680679745
2767.13680679745
2767.13680679745
3164.787916454016
3164.787916454016
3107.400039414929
2986.735908703315
2970.50083505879
2970.50083505879
2970.50083505879
2970.50083505879
2970.50083505879
2970.50083505879
2860.764914698214
2779.227373017689
3138.754317785664
3016.872662231511
2899.723819907258
2787.124009907014
2712.879222350441
2712.879222350441
2712.879222350441
2712.879222350441
2712.879222350441
2712.879222350441
2712.879222350441
2712.879222350441
3166.377732000359
3102.733251425506
3102.733251425506
3046.470626877381
2928.172459513054
2912.255720645872
2912.255720645872
2912.255720645872
2912.255720645872
2912.255720645872
2912.255720645872
2804.67148499825
2724.732718644793
3201.529404141378
3077.210115476141
2957.718296305403
2842.866490105154
2732.474519516681
2659.685512108275
2659.685512108275
2659.685512108275
2659.685512108275
2659.685512108275
2659.685512108275
2659.685512108275
2659.685512108275
3158.326225362134
3104.291894117999
3041.89534453481
3041.89534453481
2986.735908703315
2870.757313248092
2855.152667299875
2855.152667299875
2855.152667299875
2855.152667299875
2855.152667299875
2855.152667299875
2749.677926468872
2671.30658690666
3265.559992224205
3138.754317785664
3016.872662231511
2899.723819907258
2787.124009907014
2678.896587761451
2607.534815792427
2607.534815792427
2607.534815792427
2607.534815792427
2607.534815792427
2607.534815792427
2607.534815792427
2607.534815792427
3096.398260158955
3096.398260158955
3043.423425605882
2982.250337779225
2982.250337779225
2928.172459513054
2814.467954164796
2799.169281666544
2799.169281666544
2799.169281666544
2799.169281666544
2799.169281666544
2799.169281666544
2695.762673008698
2618.928026379078
3252.279534986442
3201.529404141378
3077.210115476141
2957.718296305403
2842.866490105154
2732.474519516681
2626.369203687697
2556.406682149438
2556.406682149438
2556.406682149438
2556.406682149438
2556.406682149438
2556.406682149438
2556.406682149438
2556.406682149438
3135.976027953839
3035.684568783289
3035.684568783289
2983.748456476354
2923.774840960024
2923.774840960024
2870.757313248092
2759.282308004701
2744.283609477004
2744.283609477004
2744.283609477004
2744.283609477004
2744.283609477004
2744.283609477004
2642.904581381077
2567.576496450077
3317.325125686171
3188.509348025924
3138.754317785664
3016.872662231511
2899.723819907258
2787.124009907014
2678.896587761451
2574.871768321272
2506.281060930822
2506.281060930822
2506.281060930822
2506.281060930822
2506.281060930822
2506.281060930822
2506.281060930822
2506.281060930822
3120.233223673664
3074.486301915528
2976.161341944401
2976.161341944401
2925.24358478074
2866.445922509828
2866.445922509828
2814.467954164796
2705.178733337943
2690.474126938239
2690.474126938239
2690.474126938239
2690.474126938239
2690.474126938239
2690.474126938239
2591.082922922624
2517.231859264781
3383.671628199895
3252.279534986442
3125.989556888161
3077.210115476141
2957.718296305403
2842.866490105154
2732.474519516681
2626.369203687697
2524.384086589482
2457.138295030217
2457.138295030217
2457.138295030217
2457.138295030217
2457.138295030217
2457.138295030217
2457.138295030217
2457.138295030217
3195.695717742427
3059.05218007222
3014.202256779929
2917.805237200393
2917.805237200393
2867.885867432098
2810.241100499831
2810.241100499831
2759.282308004701
2652.136013076414
2637.719732292392
2637.719732292392
2637.719732292392
2637.719732292392
2637.719732292392
2637.719732292392
2540.277375414337
2467.874371828217
3398.417002098006
3317.325125686171
3188.509348025924
3064.695644008001
3016.872662231511
2899.723819907258
2787.124009907014
2678.896587761451
2574.871768321272
2474.886359401453
2408.959112774723
2408.959112774723
2408.959112774723
2408.959112774723
2408.959112774723
2408.959112774723
2408.959112774723
2408.959112774723
3259.609632097276
3133.035017394536
2999.070764776686
2955.100251745029
2860.593369804307
2860.593369804307
2811.652811207939
2755.138333823364
2755.138333823364
2705.178733337943
2600.133346153347
2585.999737541561
2585.999737541561
2585.999737541561
2585.999737541561
2585.999737541561
2585.999737541561
2490.468015112095
2419.484678262957
3331.781374605889
3331.781374605889
3252.279534986442
3125.989556888161
3004.603572556864
2957.718296305403
2842.866490105154
2732.474519516681
2626.369203687697
2524.384086589482
2426.359175883777
2361.724620367375
2361.724620367375
2361.724620367375
2361.724620367375
2361.724620367375
2361.724620367375
2361.724620367375
2361.724620367375
3278.298010340243
3195.695717742427
3071.602958229937
2940.265455663418
2897.15710955395
2804.503303729713
2804.503303729713
2756.522363929352
2701.116013552318
2701.116013552318
2652.136013076414
2549.150339366027
2535.293860334863
2535.293860334863
2535.293860334863
2535.293860334863
2535.293860334863
2535.293860334863
2441.635308933427
2372.043802218586
3266.452328044989
3266.452328044989
3266.452328044989
3188.509348025924
3064.695644008001
2945.689777016533
2899.723819907258
2787.124009907014
2678.896587761451
2574.871768321272
2474.886359401453
2378.783505768409
2315.416294477819
2315.416294477819
2315.416294477819
2315.416294477819
2315.416294477819
2315.416294477819
2315.416294477819
2315.416294477819
3288.378540691841
3214.017657196317
3133.035017394536
3011.375449245037
2882.61319182688
2840.350107405833
2749.513042872267
2749.513042872267
2702.47290581309
2648.152954463057
2648.152954463057
2600.133346153347
2499.166999378458
2485.582216014572
2485.582216014572
2485.582216014572
2485.582216014572
2485.582216014572
2485.582216014572
2393.760106797477
2325.533139429986
3280.966893163898
3202.404243181362
3202.404243181362
3202.404243181362
3125.989556888161
3004.603572556864
2887.931153937777
2842.866490105154
2732.474519516681
2626.369203687697
2524.384086589482
2426.359175883777
2332.140691929813
2270.015974978253
2270.015974978253
2270.015974978253
2270.015974978253
2270.015974978253
2270.015974978253
2270.015974978253
2270.015974978253
3223.90053009004
3223.90053009004
3150.997703133643
3071.602958229937
2952.328871808859
2826.091364536157
2784.656968044934
2695.601022423792
2695.601022423792
2649.483240993226
2596.228386728487
2596.228386728487
2549.150339366027
2450.163724880841
2436.845309818208
2436.845309818208
2436.845309818208
2436.845309818208
2436.845309818208
2436.845309818208
2346.823634115173
2279.934450421555
3346.586231027175
3216.634208984213
3139.612003118982
3139.612003118982
3139.612003118982
3064.695644008001
2945.689777016533
2831.305052880174
2787.124009907014
2678.896587761451
2574.871768321272
2474.886359401453
2378.783505768409
2286.412443068444
2225.505857821817
2225.505857821817
2225.505857821817
2225.505857821817
2225.505857821817
2225.505857821817
2225.505857821817
2225.505857821817
3160.686794205922
3160.686794205922
3160.686794205922
3089.213434444749
3011.375449245037
2894.440070400842
2770.677808368781
2730.055851024445
2642.746100415482
2642.746100415482
2597.532589209045
2545.321947773026
2545.321947773026
2499.166999378458
2402.121298902785
2389.064029233537
2389.064029233537
2389.064029233537
2389.064029233537
2389.064029233537
2389.064029233537
2300.80748442664
2235.229853354466
3354.140698401241
3280.966893163898
3153.562949984523
3078.050983449983
3078.050983449983
3078.050983449983
3004.603572556864
2887.931153937777
2775.789267529582
2732.474519516681
2626.369203687697
2524.384086589482
2426.359175883777
2332.140691929813
2241.58082653769
2181.868488060605
2181.868488060605
2181.868488060605
2181.868488060605
2181.868488060605
2181.868488060605
2181.868488060605
2181.868488060605
3098.712543339139
3098.712543339139
3098.712543339139
3098.712543339139
3028.640622004656
2952.328871808859
2837.686343530238
2716.350792518413
2676.525344141613
2590.927549426943
2590.927549426943
2546.600577655926
2495.413674287281
2495.413674287281
2450.163724880841
2355.02088127724
2342.219636503468
2342.219636503468
2342.219636503468
2342.219636503468
2342.219636503468
2342.219636503468
2255.693612182981
2191.401817014182
3404.665685339176
3288.373233726707
3216.634208984213
3091.728382337767
3017.697042598022
3017.697042598022
3017.697042598022
2945.689777016533
2831.305052880174
2721.362026989787
2678.896587761451
2574.871768321272
2474.886359401453
2378.783505768409
2286.412443068444
2197.628261311461
2139.086753000593
2139.086753000593
2139.086753000593
2139.086753000593
2139.086753000593
2139.086753000593
2139.086753000593
2139.086753000593
3189.855594655371
3037.953473861901
3037.953473861901
3037.953473861901
3037.953473861901
2969.25551176927
2894.440070400842
2782.045434833566
2663.089012272954
2624.044455040797
2540.125048457787
2540.125048457787
2496.667232996006
2446.483994399295
2446.483994399295
2402.121298902785
2308.844001252196
2296.29376127791
2296.29376127791
2296.29376127791
2296.29376127791
2296.29376127791
2296.29376127791
2211.464325669589
2148.433153935473
3472.75899904596
3337.907534646251
3223.895327183046
3153.562949984523
3031.10625719389
2958.526512351002
2958.526512351002
2958.526512351002
2887.931153937777
2775.789267529582
2668.001987244889
2626.369203687697
2524.384086589482
2426.359175883777
2332.140691929813
2241.58082653769
2154.537511089668
2097.143875490778
2097.143875490778
2097.143875490778
2097.143875490778
2097.143875490778
2097.143875490778
2097.143875490778
2097.143875490778
3253.652706548478
3127.309406524873
2978.385758688138
2978.385758688138
2978.385758688138
2978.385758688138
2911.034815460069
2837.686343530238
2727.495524346633
2610.871580659759
2572.592602981174
2490.318674958615
2490.318674958615
2447.712973525496
2398.513719999309
2398.513719999309
2355.02088127724
2263.572550247251
2251.268393409715
2251.268393409715
2251.268393409715
2251.268393409715
2251.268393409715
2251.268393409715
2168.102280068224
2106.307013662228
3377.193886974482
3404.665685339176
3272.458367300246
3160.681693316711
3091.728382337767
2971.67280117048
2900.516188579414
2900.516188579414
2900.516188579414
2831.305052880174
2721.362026989787
2615.688222789106
2574.871768321272
2474.886359401453
2378.783505768409
2286.412443068444
2197.628261311461
2112.29167753889
2056.0234073439
2056.0234073439
2056.0234073439
2056.0234073439
2056.0234073439
2056.0234073439
2056.0234073439
2056.0234073439
3318.725760679447
3189.855594655371
3065.989614240071
2919.986037929547
2919.986037929547
2919.986037929547
2919.986037929547
2853.95570143144
2782.045434833566
2674.01521994768
2559.678020254666
2522.149610765856
2441.48889701825
2441.48889701825
2399.718601495584
2351.484039215009
2351.484039215009
2308.844001252196
2219.188774752207
2207.125875891878
2207.125875891878
2207.125875891878
2207.125875891878
2207.125875891878
2207.125875891878
2125.590470655122
2065.006876139439
3284.636369012296
3310.974398994591
3337.907534646251
3208.292516961025
3098.707542467364
3031.10625719389
2913.404707029882
2843.64332213668
2843.64332213668
2843.64332213668
2775.789267529582
2668.001987244889
2564.400218420692
2524.384086589482
2426.359175883777
2332.140691929813
2241.58082653769
2154.537511089668
2070.874193665578
2015.709222886176
2015.709222886176
2015.709222886176
2015.709222886176
2015.709222886176
2015.709222886176
2015.709222886176
2015.709222886176
3253.652706548478
3253.652706548478
3127.309406524873
3005.872170823599
2862.73140973485
2862.73140973485
2862.73140973485
2862.73140973485
2797.995785717098
2727.495524346633
2621.583548968314
2509.488255151633
2472.695696829271
2393.616565704166
2393.616565704166
2352.665295583906
2305.376509034322
2305.376509034322
2263.572550247251
2175.675269364909
2163.848897933214
2163.848897933214
2163.848897933214
2163.848897933214
2163.848897933214
2163.848897933214
2083.912226132472
2024.516545234744
3290.486060453603
3220.231734325781
3246.053332347637
3272.458367300246
3145.384820550025
3037.948571046435
2971.67280117048
2856.2791245391
2787.885609937922
2787.885609937922
2787.885609937922
2721.362026989787
2615.688222789106
2514.117861196757
2474.886359401453
2378.783505768409
2286.412443068444
2197.628261311461
2112.29167753889
2030.268817319194
1976.185512633506
1976.185512633506
1976.185512633506
1976.185512633506
1976.185512633506
1976.185512633506
1976.185512633506
1976.185512633506
3189.855594655371
3189.855594655371
3189.855594655371
3065.989614240071
2946.93350080745
2806.599421308677
2806.599421308677
2806.599421308677
2806.599421308677
2743.133123252057
2674.01521994768
2570.179949968935
2460.282603089836
2424.211467479677
2346.682907553104
2346.682907553104
2306.534603513633
2260.173048072865
2260.173048072865
2219.188774752207
2133.014969965597
2121.420488169817
2121.420488169817
2121.420488169817
2121.420488169817
2121.420488169817
2121.420488169817
2043.051202090659
1984.820142387004
3296.545650162212
3225.966725934905
3157.08993561351
3182.405227791801
3208.292516961025
3083.710608382377
2978.380952006308
2913.404707029882
2800.273651508921
2733.221186213649
2733.221186213649
2733.221186213649
2668.001987244889
2564.400218420692
2464.82143254584
2426.359175883777
2332.140691929813
2241.58082653769
2154.537511089668
2070.874193665578
1990.459624822739
1937.436777091673
1937.436777091673
1937.436777091673
1937.436777091673
1937.436777091673
1937.436777091673
1937.436777091673
1937.436777091673
3127.309406524873
3127.309406524873
3127.309406524873
3127.309406524873
3005.872170823599
2889.150490987696
2751.568060106546
2751.568060106546
2751.568060106546
2751.568060106546
2689.346199266723
2621.583548968314
2519.784264675427
2412.041767735134
2376.677909293801
2300.669517208926
2300.669517208926
2261.308434817287
2215.855929483201
2215.855929483201
2175.675269364909
2091.191147025095
2079.824008009625
2079.824008009625
2079.824008009625
2079.824008009625
2079.824008009625
2079.824008009625
2002.991374598686
1945.902100379416
3302.522044136814
3231.907500159031
3162.71247640677
3095.186211385794
3120.005125286079
3145.384820550025
3023.245694492527
2919.981325496381
2856.2791245391
2745.366325008747
2679.628613934949
2679.628613934949
2679.628613934949
2615.688222789106
2514.117861196757
2416.491600535137
2378.783505768409
2286.412443068444
2197.628261311461
2112.29167753889
2030.268817319194
1951.431004728176
1899.44782067811
1899.44782067811
1899.44782067811
1899.44782067811
1899.44782067811
1899.44782067811
1899.44782067811
1899.44782067811
3036.450897828912
3065.989614240071
3065.989614240071
3065.989614240071
3065.989614240071
2946.93350080745
2832.500481360486
2697.615745202496
2697.615745202496
2697.615745202496
2697.615745202496
2636.613920849728
2570.179949968935
2470.376730073948
2364.746831112876
2330.076381660589
2255.558350204829
2255.558350204829
2216.969053742439
2172.407774003138
2172.407774003138
2133.014969965597
2050.187399044211
2039.043145107475
2039.043145107475
2039.043145107475
2039.043145107475
2039.043145107475
2039.043145107475
1963.71703392028
1907.747157234721
1907.747157234721
3380.799969465175
3237.766709938053
3168.536764861795
3100.698506281147
3034.496285672347
3058.828554202039
3083.710608382377
2963.966367149536
2862.726789702334
2800.273651508921
2691.535612753673
2627.086876406813
2627.086876406813
2627.086876406813
2564.400218420692
2464.82143254584
2369.109412289351
2332.140691929813
2241.58082653769
2154.537511089668
2070.874193665578
1990.459624822739
1913.16765169429
1862.203745762853
1862.203745762853
1862.203745762853
1862.203745762853
1862.203745762853
1862.203745762853
1862.203745762853
1862.203745762853
3076.957685345735
2976.912644930306
3005.872170823599
3005.872170823599
3005.872170823599
3005.872170823599
2889.150490987696
2776.961256235771
2644.721318825976
2644.721318825976
2644.721318825976
2644.721318825976
2584.915608676204
2519.784264675427
2421.937970660733
2318.379246189094
2284.388609471166
2211.331715887087
2211.331715887087
2173.499072296509
2129.811543140331
2129.811543140331
2091.191147025095
2009.987646121775
1999.061906968113
1999.061906968113
1999.061906968113
1999.061906968113
1999.061906968113
1999.061906968113
1925.212778353216
1870.340350230119
1870.340350230119
3448.415968854479
3314.509773985466
3174.281088174561
3106.40859300176
3039.900496354066
2974.996358502301
2998.851523727489
3023.245694492527
2905.849379558369
2806.594891865033
2745.366325008747
2638.760404660464
2575.575369026287
2575.575369026287
2575.575369026287
2514.117861196757
2416.491600535137
2322.656286558187
2286.412443068444
2197.628261311461
2112.29167753889
2030.268817319194
1951.431004728176
1875.654560484598
1825.689946826327
1825.689946826327
1825.689946826327
1825.689946826327
1825.689946826327
1825.689946826327
1825.689946826327
1825.689946826327
3020.771772860312
3016.625181711505
2918.541808755202
2946.93350080745
2946.93350080745
2946.93350080745
2946.93350080745
2832.500481360486
2722.511035525266
2592.864038064683
2592.864038064683
2592.864038064683
2592.864038064683
2534.230988898239
2470.376730073948
2374.448990843856
2272.920829597151
2239.596675952123
2167.972270477536
2167.972270477536
2130.881443427949
2088.050532490521
2088.050532490521
2050.187399044211
1970.576123648799
1959.86461467462
1959.86461467462
1959.86461467462
1959.86461467462
1959.86461467462
1959.86461467462
1959.86461467462
1887.463508189427
1833.667010029528
1833.667010029528
1833.667010029528
1833.667010029528
3477.011822514219
3380.799969465175
3249.51938626026
3112.04028252408
3045.49862058996
2980.294604268692
2916.663096570883
2940.050513458322
2963.966367149536
2848.871940743499
2751.563619475523
2691.535612753673
2587.020004569082
2525.073891202243
2525.073891202243
2525.073891202243
2464.82143254584
2369.109412289351
2277.114006429595
2241.58082653769
2154.537511089668
2070.874193665578
1990.459624822739
1913.16765169429
1838.877020082939
1789.892104731693
1789.892104731693
1789.892104731693
1789.892104731693
1789.892104731693
1789.892104731693
1789.892104731693
1789.892104731693
3037.079774745751
2961.540953784619
2957.475668344613
2861.315498779609
2889.150490987696
2889.150490987696
2889.150490987696
2889.150490987696
2776.961256235771
2669.128466201241
2542.023566730081
2542.023566730081
2542.023566730081
2542.023566730081
2484.540185194352
2421.937970660733
2327.891167493977
2228.353754507011
2195.683015639336
2125.463010272094
2125.463010272094
2089.099454341127
2047.108365186785
2047.108365186785
2009.987646121775
1931.937376126274
1921.435896739824
1921.435896739824
1921.435896739824
1921.435896739824
1921.435896739824
1921.435896739824
1921.435896739824
1921.435896739824
1850.454419793556
1797.71275493091
1797.71275493091
1797.71275493091
1797.71275493091
3408.835120111979
3408.835120111979
3314.509773985466
3185.803319863001
3051.019884827529
2985.782961362706
2921.857455165384
2859.473624089101
2882.402464174826
2905.849379558369
2793.011706611273
2697.611391642669
2638.760404660464
2536.294122126551
2475.562638433571
2475.562638433571
2475.562638433571
2416.491600535137
2322.656286558187
2232.464712185877
2197.628261311461
2112.29167753889
2030.268817319194
1951.431004728176
1875.654560484598
1802.82060792445
1754.796181109503
1754.796181109503
1754.796181109503
1754.796181109503
1754.796181109503
1754.796181109503
1754.796181109503
1754.796181109503
1754.796181109503
3053.906056282357
2977.529190927207
2903.471523318254
2899.485949357463
2805.211273313342
2832.500481360486
2832.500481360486
2832.500481360486
2832.500481360486
2722.511035525266
2616.792613922786
2492.179967382432
2492.179967382432
2492.179967382432
2492.179967382432
2435.823710974855
2374.448990843856
2282.246242641154
2184.660543634324
2152.630407489545
2083.787264972641
2083.787264972641
2048.136719942281
2006.96898547724
2006.96898547724
1970.576123648799
1894.05625110419
1883.760683078259
1883.760683078259
1883.760683078259
1883.760683078259
1883.760683078259
1883.760683078259
1883.760683078259
1883.760683078259
1883.760683078259
1814.170999797604
1762.463485226382
1762.463485226382
1762.463485226382
1762.463485226382
1762.463485226382
3351.561107362958
3341.995215796058
3341.995215796058
3249.51938626026
3123.336588100981
2991.195965517185
2927.238197414418
2864.566132515083
2803.405513812844
2825.884768798849
2848.871940743499
2738.246771187523
2644.717050630068
2587.020004569082
2486.562864829952
2427.022194542717
2427.022194542717
2427.022194542717
2369.109412289351
2277.114006429595
2188.69089429988
2154.537511089668
2070.874193665578
1990.459624822739
1913.16765169429
1838.877020082939
1767.471184239657
1720.388412852454
1720.388412852454
1720.388412852454
1720.388412852454
1720.388412852454
1720.388412852454
1720.388412852454
1720.388412852454
1720.388412852454
3070.944332987241
2994.025545374859
2919.146265614909
2846.540709135543
2842.633283683787
2750.207130699355
2776.961256235771
2776.961256235771
2776.961256235771
2776.961256235771
2669.128466201241
2565.482954826261
2443.313693512188
2443.313693512188
2443.313693512188
2443.313693512188
2388.062461740054
2327.891167493977
2237.496316314857
2141.824062386592
2110.421968127005
2042.928691149648
2042.928691149648
2007.977176414001
1967.616652428667
1967.616652428667
1931.937376126274
1856.917893239402
1846.824199096332
1846.824199096332
1846.824199096332
1846.824199096332
1846.824199096332
1846.824199096332
1846.824199096332
1846.824199096332
1846.824199096332
1846.824199096332
1778.599019409415
1727.905377672924
1727.905377672924
1727.905377672924
1727.905377672924
1727.905377672924
3354.190782901452
3285.844222904861
3276.465897839272
3276.465897839272
3185.803319863001
3062.094694216648
2932.545064232535
2869.841370014135
2808.398169132434
2748.436778247887
2770.475263528283
2793.011706611273
2684.555658026983
2592.85985355889
2536.294122126551
2437.806730225443
2379.433524061487
2379.433524061487
2379.433524061487
2322.656286558187
2232.464712185877
2145.775386568509
2112.29167753889
2030.268817319194
1951.431004728176
1875.654560484598
1802.82060792445
1732.814886509467
1686.655306718092
1686.655306718092
1686.655306718092
1686.655306718092
1686.655306718092
1686.655306718092
1686.655306718092
1686.655306718092
1686.655306718092
1686.655306718092
1686.655306718092
3039.863465878216
3010.729738222785
2935.319162132215
2861.908103544029
2790.726185427003
2786.895376160576
2696.281500685642
2722.511035525266
2722.511035525266
2722.511035525266
2722.511035525266
2616.792613922786
2515.179367476726
2395.405581874694
2395.405581874694
2395.405581874694
2395.405581874694
2341.237707588288
2282.246242641154
2193.623839524369
2099.827512143718
2069.041145222554
2002.871265832988
2002.871265832988
1968.605074915687
1929.035933753595
1929.035933753595
1894.05625110419
1820.507738470002
1810.611959898365
1810.611959898365
1810.611959898365
1810.611959898365
1810.611959898365
1810.611959898365
1810.611959898365
1810.611959898365
1810.611959898365
1810.611959898365
1775.10976460624
1743.72452883276
1694.024880071494
1694.024880071494
1694.024880071494
1694.024880071494
3288.422336177894
3288.422336177894
3221.415904808687
3212.221468469875
3212.221468469875
3123.336588100981
3002.053621781027
2875.044180620132
2813.569970602093
2753.331538365131
2694.54586102734
2716.152219145376
2738.246771187523
2631.91731179116
2542.019464273422
2486.562864829952
2390.006598260238
2332.777964766164
2332.777964766164
2332.777964766164
2277.114006429595
2188.69089429988
2103.701359380892
2070.874193665578
1990.459624822739
1913.16765169429
1838.877020082939
1767.471184239657
1698.83812402889
1653.583634037345
1653.583634037345
1653.583634037345
1653.583634037345
1653.583634037345
1653.583634037345
1653.583634037345
1653.583634037345
1653.583634037345
1653.583634037345
1653.583634037345
1653.583634037345
2975.028150065371
2980.258299880604
2951.695821787044
2877.763884443348
2805.792258376498
2736.006064144121
2732.250368784878
2643.413235966315
2669.128466201241
2669.128466201241
2669.128466201241
2669.128466201241
2565.482954826261
2465.862124977182
2348.436844975191
2348.436844975191
2348.436844975191
2348.436844975191
2295.331085870871
2237.496316314857
2150.611607376833
2058.654423670312
2028.471711002504
1963.59928022842
1963.59928022842
1930.004975407536
1891.211699758426
1891.211699758426
1856.917893239402
1784.811508303923
1775.10976460624
1775.10976460624
1775.10976460624
1775.10976460624
1775.10976460624
1775.10976460624
1775.10976460624
1775.10976460624
1775.10976460624
1775.10976460624
1775.10976460624
1740.303690790431
1709.533851796823
1660.808705952445
1660.808705952445
1660.808705952445
1660.808705952445
3252.707943041379
3223.943466841072
3223.943466841072
3158.25088706734
3149.236733793995
3149.236733793995
3062.094694216648
2943.189825275517
2818.670765313855
2758.401931962836
2699.344645456011
2641.711628458176
2662.894332495466
2684.555658026983
2580.311089991333
2492.1759453661
2437.806730225443
2343.143723784547
2287.037220358984
2287.037220358984
2287.037220358984
2232.464712185877
2145.775386568509
2062.452313118521
2030.268817319194
1951.431004728176
1875.654560484598
1802.82060792445
1732.814886509467
1665.527572577343
1632.870169193473
1621.160425526809
1621.160425526809
1621.160425526809
1621.160425526809
1621.160425526809
1621.160425526809
1621.160425526809
1621.160425526809
1621.160425526809
1621.160425526809
1621.160425526809
1621.160425526809
3029.311157465675
2916.694264769972
2921.821862628043
2893.819433124553
2821.337141611125
2750.776723898528
2682.358886415805
2678.676832142037
2591.581603888545
2616.792613922786
2616.792613922786
2616.792613922786
2616.792613922786
2515.179367476726
2417.511887232532
2302.389063701167
2302.389063701167
2302.389063701167
2302.389063701167
2250.324593991049
2193.623839524369
2108.442752330228
2018.288650657168
1988.697755884808
1925.097333557274
1925.097333557274
1892.161740595624
1854.129117410222
1854.129117410222
1820.507738470002
1784.811508303923
1740.303690790431
1740.303690790431
1740.303690790431
1740.303690790431
1740.303690790431
1740.303690790431
1740.303690790431
1740.303690790431
1740.303690790431
1740.303690790431
1740.303690790431
1740.303690790431
1706.180089010227
1676.013580192964
1676.013580192964
1628.243829365142
1628.243829365142
1628.243829365142
1628.243829365142
3256.334031366077
3188.92935592292
3160.728889059875
3160.728889059875
3096.324399085628
3087.486993915681
3087.486993915681
3002.053621781027
2885.48022085835
2763.402711092014
2704.315619571408
2646.41631907452
2589.913361233506
2610.68071813281
2631.91731179116
2529.716754893464
2443.309750358922
2390.006598260238
2297.199729200536
2242.193353293122
2242.193353293122
2242.193353293122
2188.69089429988
2103.701359380892
2022.012071684825
1990.459624822739
1913.16765169429
1838.877020082939
1767.471184239657
1698.83812402889
1665.527572577343
1600.853107052425
1589.372966202754
1589.372966202754
1589.372966202754
1589.372966202754
1589.372966202754
1589.372966202754
1589.372966202754