/*--------------------------------*- C++ -*----------------------------------*\
| =========                 |                                                 |
| \\      /  F ield         | OpenFOAM: The Open Source CFD Toolbox           |
|  \\    /   O peration     | Version:  v1912                                 |
|   \\  /    A nd           | Website:  www.openfoam.com                      |
|    \\/     M anipulation  |                                                 |
\*---------------------------------------------------------------------------*/
FoamFile
{
    version     2.0;
    format      ascii;
    class       volScalarField;
    location    "7000";
    object      rho;
}
// * * * * * * * * * * * * * * * * * * * * * * * * * * * * * * * * * * * * * //

dimensions      [1 -3 0 0 0 0 0];


internalField   nonuniform List<scalar> 
18230
(
0.2868027267491839
0.1590036269415568
0.3346241843948594
0.287346871180496
0.1151709967792848
0.162807336077011
0.2493220456566226
0.3316209047212422
0.2857184377117016
0.3307288122405395
0.1244367449461774
0.1642920479870178
0.1519843960371663
0.2451142125523736
0.3273002172601434
0.2848123730140256
0.397878990920128
0.3336255407220244
0.1289791271535616
0.1665684787268176
0.2845803350397809
0.1451851041507443
0.243548402653621
0.3237015657634439
0.2835431185983558
0.4058410891177858
0.3987511961091444
0.3338687537313469
0.133958739026708
0.1698133172629836
0.4853957713450687
0.2927798547488518
0.1437591778945901
0.2432242738033896
0.3203383036827012
0.2827750483096196
0.4123341267357454
0.4064729145270408
0.3976332409571181
0.3355861450252551
0.1394902963829195
0.1735794862169656
0.6120029070739071
0.4873084533419648
0.2970070589257687
0.1441651265983061
0.2420439020002304
0.3183524261550592
0.282753802392909
0.420711114326832
0.4130339507896731
0.4052233303063056
0.3978293651008724
0.3374837794998619
0.1458736395076068
0.1768523764472017
0.6253239200469662
0.6136780573284865
0.48897776832049
0.3017950004013355
0.1465520704500332
0.241998273074438
0.3170463911679021
0.2825913124183135
0.4302249800909456
0.4215045223205621
0.4116631360880544
0.4052874880972184
0.3976622399358731
0.3398013533035132
0.1527924849272846
0.1805844798537999
0.6344216011996774
0.6263026859647784
0.613291934047749
0.4914641069449066
0.3074466357476471
0.1500768305063842
0.2417953940662038
0.3161241501669245
0.2830448964634963
0.4409324697424686
0.4310014793081883
0.4199906465375072
0.4117758391933823
0.4050006404047109
0.3977597394617359
0.3427559000274267
0.1606445565287173
0.1846832009077165
0.6357808110771613
0.6353581253203348
0.6265921255877007
0.6140670487840713
0.4923807390838509
0.3133608993876933
0.1535189202755042
0.2419826419585855
0.3151698089690849
0.2839881700996535
0.4537496343918251
0.4418721884882855
0.4294267908227321
0.4201392720890528
0.4115087360094025
0.405006667438734
0.397759932506053
0.3457974659524209
0.1693486325933583
0.1898172627310532
0.6347784481000756
0.6368261585510159
0.6353954836082106
0.6268834959936902
0.6139973269097581
0.4959841918338777
0.3211422751520149
0.1578889479800018
0.2424644649107295
0.3138003245104286
0.2857848814300366
0.4676507828537325
0.4546873498772624
0.4400897638045291
0.4296068017374791
0.4198889402756984
0.4114832753947598
0.4049281124215092
0.3979315880993863
0.3491031585050913
0.1790985939095189
0.1962713251636807
0.6328541323430561
0.636021210041993
0.636817775750797
0.6358472503419805
0.6271892545536697
0.6147898361114503
0.4975346003837143
0.3284714698568962
0.1639105547548672
0.2435966819831117
0.3135766731249814
0.2890609669917156
0.4909826839807864
0.4686591178773579
0.4527887019466505
0.4402831106564285
0.4293472241814944
0.4198735679613454
0.4114063264301148
0.4048964712454135
0.3980360876197332
0.3527849287762538
0.1897806222449889
0.2030072354982914
0.6299312068404953
0.6340321478719267
0.6359037212271959
0.6372603359612022
0.6359039738755278
0.6274951849652102
0.6149362513589925
0.5011438852901821
0.3362132685516671
0.1706278393452674
0.2449426006938715
0.3136021300359379
0.2936367336977168
0.5461261283635022
0.4917908075901929
0.4665398802678731
0.453017438891089
0.4400391585743232
0.4293500365988421
0.419831666934472
0.4113601016023078
0.4048461934176176
0.3982262136446413
0.3569728330741641
0.201467421007848
0.2106556126973806
0.6282079782059121
0.6310337151810351
0.6338918122621492
0.6362565668378237
0.6372739436662788
0.636275163165142
0.6277910157113482
0.6158272474602029
0.5048752812227342
0.3455311149051993
0.1784927072805734
0.2472160867703753
0.3141440882396546
0.2995065850640951
0.6222370393691579
0.5455978264599473
0.4899281433302545
0.466908050513254
0.4527361380033592
0.4399961483395219
0.4292041005498211
0.4197779972394763
0.411336094978913
0.4048534417948442
0.3984001003008205
0.3610650004349376
0.2143340344424962
0.2189826748095158
0.625178723337533
0.6291430260201373
0.6310059096264627
0.6342756231505052
0.6364080290379688
0.6376853067501643
0.6363464697585488
0.6281194607888417
0.6157923928034738
0.5095594581687478
0.3549901397250649
0.1867204150359859
0.2503899435576967
0.3145969413769297
0.3062823076652507
0.721812350614935
0.6219759953059157
0.5449226091292363
0.4904941242006212
0.4665784823490716
0.4526556004513733
0.4399448732696624
0.4292136471910563
0.419766245537418
0.4113085176791345
0.4048714288194193
0.3986711814439865
0.3651381548131068
0.2278192289687483
0.228104271911317
0.6203465513246134
0.626165594126967
0.6294406499635978
0.6313442680996602
0.6343742677828144
0.6367677605036526
0.6376205053862473
0.6366668924695823
0.6284762453747726
0.616867486013886
0.5137436377415238
0.3655755806719829
0.194093052628185
0.2554049267420783
0.3158200801210048
0.3147978979912273
0.7772401940226941
0.721073321187004
0.6213405091429246
0.5449946366939202
0.4896877341657747
0.4665569238486905
0.4525636274784834
0.439858640722316
0.429136287980404
0.4197444255988175
0.4113427604398386
0.4049714271667939
0.3990185699809168
0.3694394845873417
0.2420348683581386
0.2387498958470343
0.6120709150353996
0.6212456007296269
0.6261791469616428
0.6295959570135686
0.6314598249263769
0.6348038691523615
0.6367148936176676
0.6380621296845795
0.6367407484741695
0.6287434852816676
0.6169199136736498
0.5195544078118655
0.3765849560399436
0.1993880045299664
0.2640999564272439
0.3182382009491652
0.3257080741540497
0.8005287790921002
0.7763280310952607
0.7205599884002313
0.6208553121208943
0.5450125467186837
0.4899759073263197
0.4663175454257309
0.4524074965175606
0.4397948672663228
0.4291527019155232
0.4198090976856699
0.4114505343088072
0.405157183954129
0.3994814566745539
0.3736415370717898
0.2563692536023834
0.2512061277486295
0.6025899677662032
0.6131528926176034
0.6213869444625515
0.6264594011558389
0.6298501584616817
0.6318420596924242
0.6346396704989965
0.6372315868721546
0.6379615532851483
0.6370408723811631
0.6290942942530978
0.6177240214357338
0.5250762424610125
0.3878567179642315
0.2069135104672189
0.2769296668209356
0.3209928169954377
0.3387451374047782
0.8174820586283068
0.7994306826632543
0.7757264544436692
0.7202511850355382
0.6208001526332438
0.5445746827853064
0.4895578572033327
0.4662612690726268
0.452310192421787
0.4397636207196077
0.4291574861739506
0.4199208963788219
0.4116495848330743
0.4054335398694597
0.4000952839704212
0.3778478226243586
0.2705146293701532
0.2660046078037056
0.614721512733302
0.6033879395947416
0.6130588043235329
0.6216307729467146
0.6265895756506633
0.6300756533180054
0.6318512272628773
0.6351906560328699
0.6369949275228216
0.6382770351801231
0.6369706575239878
0.6292945518899572
0.6181704082103041
0.5317463005643465
0.4002343610644815
0.216490507807505
0.2933614657168188
0.3247235666570024
0.3537077828596117
0.8333336926336532
0.816284457480339
0.7990349370251552
0.7752689759519651
0.7197733068632672
0.6202145106470122
0.5442324185477875
0.4897041106170778
0.4660438323324244
0.4521858046995813
0.4397527339682652
0.4292783526042331
0.4201588901684833
0.4119645056317426
0.4058851873898395
0.400820586981376
0.3818890454181044
0.2843027465673799
0.2825316333096022
0.6326891014115336
0.6159926531015604
0.6035924725638808
0.6133567088416976
0.621773224691556
0.6268941247457237
0.630151110095047
0.6322141450794098
0.6348924441015622
0.6375418038624915
0.6381212069504461
0.6370254549868849
0.6295231714312036
0.6189088048383588
0.5383298464843141
0.4139795347883559
0.227137752382122
0.3155607211825119
0.3306201677749577
0.3713994907331709
0.8480755938864245
0.8322358223500309
0.8159351823405966
0.7985035949138758
0.7747234103895726
0.7194045238901312
0.6205888112378869
0.5441293437706507
0.4892204892011148
0.4659965060016455
0.4521284463398142
0.4398602798379599
0.4295009507016033
0.4204939370959218
0.4124707984218755
0.4064529490141777
0.4016649590585241
0.3857153502019717
0.2978681327726873
0.2998503248636483
0.6440006677659926
0.6334625847759306
0.615650157576877
0.6037636067695051
0.6135578002927956
0.6219965572224249
0.6269123413593605
0.6304273857153642
0.632127410070993
0.6354486872207559
0.6371021164366167
0.6381245304928237
0.6370253905607168
0.6298071583596324
0.6193197596063931
0.5454549035523767
0.4264217230821635
0.2414584335212984
0.3426399855652488
0.3405005969975795
0.3930620929645045
0.8612440490257903
0.8469308084249363
0.8318408314991154
0.8154395097275641
0.7980532545893561
0.7742849886755951
0.7188185573228014
0.6196821654593372
0.5440549155263436
0.4894709049051242
0.4658577577414534
0.4521278007454642
0.4400442767928257
0.4298205777743018
0.4210292800521082
0.4131283231588054
0.4072047889276585
0.4026332841393262
0.3893264633905256
0.3108808917590399
0.3178422975418227
0.6268521022736838
0.6448025634732861
0.6334373950586083
0.6161797543114641
0.6038947102989319
0.6137663067818812
0.6220658540225266
0.6272995068467829
0.63036523725251
0.6324460953101265
0.6350011610873527
0.6370775352945953
0.6380361326343506
0.6370028115233377
0.6300467576062737
0.6205296002133762
0.5525530779314587
0.4347493093070289
0.2559027432321518
0.3726398068949582
0.3538534476651838
0.4186726544128067
0.8749219221926143
0.8602341327036694
0.846669717648511
0.8313105500551252
0.8148918544990823
0.797405269912608
0.7736538308184501
0.7184584184601422
0.6196031403186474
0.5436375558421259
0.4890945355890328
0.4658873047603113
0.452209772148193
0.440369492373808
0.4303297965183378
0.4217079533723358
0.4140296119551551
0.4081074539337208
0.4036197642012813
0.3927145869158942
0.3231321547122535
0.3369419387443714
0.6061383995125802
0.6275069398058818
0.6447433458701695
0.6336375031286269
0.6159439780495307
0.6040441524274821
0.6137143803913079
0.6223950485518245
0.6270622364358385
0.6307331047473511
0.6322270655922754
0.6349383516982303
0.636915323207826
0.637931251700292
0.6369084615752905
0.6303716610361156
0.6210317870527458
0.5601563754733004
0.442489175791388
0.2704261154318529
0.4012814794192855
0.370482008272981
0.447230200173216
0.8858769894483812
0.8735638340357984
0.8598599308617165
0.8461671745849486
0.8308839027423409
0.8144090374149167
0.7968180409300992
0.7730230090079551
0.7176531761537215
0.6192261634506819
0.5435928322052231
0.4894047680206078
0.4659232437972132
0.4524295051884198
0.4408250003398784
0.4309886562543042
0.4226138028778109
0.4151615714485141
0.4092535297132029
0.4048933797560865
0.3958489908769546
0.3343199880514492
0.3567011516308931
0.5951530505485398
0.6068191372805284
0.6279945385874685
0.644851069243765
0.6338027786533796
0.6164601766838214
0.6041613056420233
0.6140511571749339
0.6222043025208724
0.6275546866198896
0.6304317358275897
0.6320925914769873
0.6347433131327738
0.6367673047304596
0.6377343285583668
0.6368727966027906
0.6306898632925376
0.6222004742321416
0.5672933127186767
0.4526429177496808
0.2856577066489336
0.4305528950017444
0.3907087175216706
0.4763344875485331
0.8979667302625848
0.8847252949735113
0.8732450862633946
0.8593480787293768
0.845715858895012
0.8302997271614212
0.8138060855027953
0.7962238305892655
0.7724334564643087
0.7174055886311601
0.6189283043245135
0.5435365522558792
0.4892686046317285
0.4661903374665292
0.4527764770961977
0.4414279318206638
0.4318674144491726
0.4237365830300055
0.4165537560064008
0.4106669789021939
0.4062917770942598
0.398803307097722
0.3441503003966329
0.3774768857693064
0.6217142676767952
0.5957705061179388
0.6068208444226022
0.6276774051487254
0.6449158973963038
0.6338802923127849
0.6162802039110314
0.604268506197697
0.6138361885479335
0.6225452561242212
0.6271358810243972
0.6303073788967983
0.6319427383514077
0.6345647917894227
0.6365136073772381
0.6375078267491993
0.6365534515597107
0.6311490535130635
0.6230393619159433
0.5742612961630166
0.4645575734608112
0.3010709888882805
0.4602190527611334
0.4133146166045499
0.5046635287917828
0.9075041117160587
0.8965138650472139
0.8843982595486716
0.8726828385977375
0.8588412698147325
0.8450681513611351
0.8297077714695635
0.8131592541990312
0.7956063657909221
0.7717131902617671
0.7167620245017998
0.6187659336242161
0.5436216690634743
0.4897938117545374
0.4665199340266356
0.4532750445303687
0.4422181670840429
0.4329516323216293
0.4251048481570964
0.4182878600099545
0.4123693846200006
0.4080181424506154
0.4015987276849446
0.3522400805942938
0.400139756238491
0.6564576979349888
0.6231838475960204
0.5965978189814538
0.6069679066598793
0.6277989894109389
0.6449864792687006
0.6339413455320084
0.6167697822727408
0.6043222609167839
0.6140772063348304
0.6222727755163828
0.6271135212740294
0.6301368962414602
0.6317849227237076
0.6342710148974599
0.6363295860571775
0.6372477327740527
0.6365343961297768
0.6316803488053994
0.6242828889494565
0.5808240251285198
0.4773722099125197
0.316565170116573
0.4938568633645026
0.438446982847599
0.5283588461295863
0.9172659233072094
0.9061011938367463
0.8959131018568633
0.8837118956687946
0.8720992267316848
0.8581804294980045
0.8444003869628235
0.8289968697144205
0.8124742133671299
0.7948728188568958
0.7711256190186678
0.7163623004893157
0.618727050165071
0.543746705721242
0.4899638050037379
0.4670589940549425
0.4539079057207707
0.4431975408807318
0.4342711578354744
0.4267899994498996
0.4203271368655406
0.4145662821897597
0.4100374647088673
0.4043895369208491
0.3585117305836629
0.4259822340632399
0.6771167085051674
0.6572585284252265
0.6222673030827267
0.596151351785661
0.6070578785777533
0.62778216747001
0.6450234917779043
0.6340442345060165
0.6163667681275036
0.6043525439640524
0.6138175226099479
0.6222105002595449
0.6269268396022583
0.6299709770033396
0.6315403009535254
0.6340541875369581
0.6358744067230859
0.6370469855864832
0.6363462142484472
0.6322701187249866
0.625366343655
0.5869435441983218
0.4900670346130246
0.3315635715532019
0.524922281768163
0.4635811276498666
0.5499956364771815
0.9267459363101748
0.9159020275222169
0.9054059613776091
0.8952388699519713
0.8830985311980003
0.8713812751824938
0.8574973807670551
0.8437344381519153
0.8283087208949241
0.81177123156867
0.7942333597665718
0.7704292262193234
0.7158913349410451
0.6188039166511802
0.5441386436359743
0.4908730018935357
0.4676925989193382
0.4546889036028
0.4443931732792823
0.435885631632513
0.4287647617457978
0.4228174504708494
0.4172230876537271
0.4126115317165624
0.4072151694556287
0.3636681350404318
0.4521664891211019
0.5789383201741001
0.6779759221334204
0.6568435571192065
0.6228948283182993
0.5968470210378706
0.6069987990037264
0.6278450227678767
0.6450412511417825
0.6341406545529382
0.616507566986795
0.6043225178010233
0.6137774267674679
0.6220236022184676
0.6267508034021004
0.6297094033457716
0.6313802363400649
0.633547575747213
0.6356368249988679
0.6367119003764344
0.6363359941108878
0.6328638728397681
0.6266631905835146
0.5924278839829409
0.502242086970169
0.3463416583613278
0.5632934867945802
0.4892065397345512
0.5652755633004228
0.9350505021902933
0.9253380723871387
0.9151852408464334
0.9048040425981573
0.8946002028056377
0.8824202576952406
0.8707189772318243
0.856758370411705
0.8429897354426591
0.8276156243994924
0.8110513702194604
0.7935359435716822
0.7698964396320075
0.7155371701847042
0.6189957143635428
0.5446647886072089
0.4914657721785645
0.4685392525812646
0.4557121849456626
0.4458469653022168
0.4377649384934552
0.4311650921156142
0.4257296106402005
0.4204429432933575
0.4156386069540937
0.4102311377133862
0.3698029361822252
0.4794462946583732
0.4612496231775248
0.5794591594498776
0.6775091636583375
0.6570248407995428
0.6224675146399038
0.5961251034259742
0.6070293476010805
0.6277514806947795
0.6448904501647494
0.6340603205761571
0.6164301082657663
0.6042322217663149
0.613554646768419
0.6218296194874647
0.6264654941315126
0.6295400684011531
0.6309343945023932
0.6332706689097829
0.6352911619289716
0.6366174438414997
0.6362845784013446
0.6335066816026356
0.627879989134979
0.5973088825447204
0.5136323354838159
0.3615619645412905
0.5939278066770804
0.5094465722568438
0.5770310705764188
0.9433836409402566
0.933649760467009
0.9246222962643171
0.9144739742277904
0.9041145440082616
0.8938870113579623
0.881649478163045
0.869934116355243
0.8560045170621541
0.8422051071351639
0.8268561372871062
0.8103624954457469
0.792861682957439
0.7692713046587085
0.7152803088489771
0.6193757864068264
0.545391874770405
0.4926958259970189
0.4696066109763636
0.456989162299808
0.4475234397554834
0.4400392317215149
0.4339712520855272
0.4290890709945436
0.4242618663679399
0.4191554753048883
0.4135989980324128
0.3756658865226672
0.5033725594679364
0.4216228397637489
0.4625101767371329
0.5789799497183667
0.6775648235459136
0.6568757939247839
0.6228302634147496
0.5968880360053136
0.6069615372718549
0.6277426076577374
0.644957256636511
0.6340109570003535
0.6163729647170998
0.6040813742812317
0.6133380300623129
0.6215419977038993
0.6262759859718486
0.6290796559707986
0.6307370111107968
0.6328602752382937
0.6349840077120988
0.6362952339877715
0.6362952594121322
0.6340712999048898
0.6290894870796381
0.6016551482718746
0.5240153146532369
0.3780249576030525
0.6392181017719943
0.5266395674817035
0.5753840937082489
0.9510784951596907
0.9419545919170098
0.9329579633406855
0.9240131225058912
0.9138681705900752
0.9033420416346297
0.8931168846454968
0.8808735573909009
0.8691521663336587
0.8552216355680324
0.8414698648693812
0.8261283754985808
0.809700259577765
0.7922573579298549
0.768754031073964
0.715164846843292
0.6199463485784296
0.5461949437273145
0.4937267778804129
0.4709963384611682
0.4584748175514746
0.4495828212816439
0.442674726184017
0.437219161177948
0.4329264876166805
0.4285728565128605
0.4231971904232666
0.4175300619317315
0.3818412719655309
0.5177402755391166
0.440113801111369
0.4218460253614259
0.4611489719325721
0.5790830379928222
0.6775554586925302
0.656979807038599
0.6223531168013652
0.5964172141394271
0.6068380096913849
0.6275467477515329
0.6448450313316185
0.6339170641148977
0.6162324014046136
0.6038712172094273
0.6130252016033333
0.6213461310042516
0.6258003103418516
0.6288623360461684
0.630414797528414
0.6325248449208775
0.6346428337197312
0.635911426662718
0.6362705828485974
0.6345798032734599
0.6302458609224315
0.6055083972420792
0.53309749248894
0.3984366442961696
0.6416068395913365
0.5173389170409287
0.5667860612618951
0.5833413808239586
0.9585791459145085
0.9495952149028525
0.9412544478688244
0.932267311310808
0.9232935687376769
0.9131378418431987
0.9026727240747644
0.892365442800704
0.880081630421257
0.8683604473801095
0.8544682473498608
0.8407260668190401
0.8254228775900859
0.8090535698588508
0.7916926042033996
0.7683014016400374
0.7150408982383157
0.620458458333958
0.54732714446923
0.4955072651887368
0.4725399670363149
0.460406595800443
0.4519663676331209
0.4457377427195495
0.4409453757161969
0.4371422443903546
0.4333082556371622
0.4278549266701677
0.4219847832498477
0.383167057237527
0.4384917035988374
0.4692025620655861
0.4409382771068249
0.4218033857016752
0.4614248520686693
0.5789320197697636
0.6773818293540436
0.6569523923917289
0.6227957030801267
0.5965609072205573
0.6066981982270494
0.6273442338830515
0.6447204361540736
0.6337774546608566
0.6162602462305898
0.6038359717115253
0.6128081190933186
0.6208684240706598
0.6255499072137365
0.6285189292385346
0.6301725974478288
0.6321460014164317
0.6342913662172242
0.635552414533938
0.6361650184324684
0.6349284843107658
0.6312853795854599
0.6088494237843569
0.5406912590150799
0.4180089682409727
0.6275163173125377
0.5488466388939812
0.5612072552115071
0.6000667598719206
0.9656154747178047
0.9570504224683973
0.9488661037775491
0.9405262842364392
0.9315862476503184
0.9226081750948041
0.912415529821808
0.9018537806708815
0.8915459676844457
0.8792731470046409
0.8675926919866593
0.8537168622638601
0.8400332495278449
0.8247849801856847
0.8084737820612271
0.7911955988005123
0.7679001410082779
0.7150960543600222
0.6215167210842595
0.5487081197848823
0.4971962305246103
0.47463201946883
0.4626595328095343
0.4548336296797044
0.4492499990263905
0.4450446445431022
0.4418300283231018
0.4384004623493676
0.4329725288272284
0.4260354492380625
0.404418810024226
0.4293824766046694
0.4929140714041899
0.4696172569317669
0.440193477398616
0.4217970637858712
0.4617572374917974
0.5788277020035488
0.6773064612235383
0.6567909198336952
0.6221244290444149
0.5960651934122353
0.6065066662332669
0.627047875141882
0.6445282701952959
0.6335714589031014
0.6158741180512829
0.60348235088721
0.6123243965466838
0.6205860392603385
0.6251808555261529
0.6282403965449394
0.6298960335619078
0.631739988071829
0.6338436115916714
0.6351742934472481
0.6359054312693246
0.6350803085460084
0.6321800035235836
0.6118049402299499
0.5476977611555026
0.4420714744175394
0.6167650407498194
0.5560229326368232
0.5506564245462918
0.5692290162020638
0.5915056273701311
0.5425346498322232
0.6220128640579392
0.9722751548839318
0.9640379043947064
0.9563113301878597
0.9481765522419074
0.9398247510342368
0.9308226740949929
0.9218414649739386
0.9116184339148854
0.9010957467353161
0.8907788031305071
0.8785340105003374
0.8668364599108251
0.8530059308933032
0.8393764382700158
0.8241792502727965
0.8079764739427779
0.7907496232839665
0.7675224659501105
0.7151833787205518
0.6226090813931282
0.5503229997263031
0.4997044534219854
0.4769880525693
0.4655158678174587
0.4581792950592547
0.453218399346608
0.4497297696032851
0.446944021613965
0.4438635691770418
0.4379901305895798
0.4321064653793734
0.4142102526205248
0.4174848224943743
0.5082808773262134
0.4932443454819523
0.4691447404551626
0.4404682279573228
0.4217557646136966
0.4612367373859768
0.5787585558931111
0.6770176208053189
0.6567543737298686
0.6227114936666536
0.5962730770646276
0.6062163808238439
0.6268000441010076
0.6442425841683054
0.633486856924354
0.6159031562324351
0.6033033300682894
0.6120615054363704
0.6202540559031492
0.6248662971323908
0.6279351532812524
0.6296073840462656
0.6313160636353798
0.6332961399354485
0.6347440113125961
0.6355018968912668
0.6351769678953227
0.6329102334631553
0.6140363281699439
0.5497475433871786
0.4236382599446564
0.5159498805311509
0.6154920998218528
0.5708924287997612
0.5920888323534792
0.5698627291283744
0.613802847174249
0.565512869085207
0.6363569774387816
0.9783824158049615
0.9707574702356069
0.9632999695939009
0.955585922268398
0.9475065326723017
0.9391134686853035
0.9300684618949256
0.9210515586374223
0.9108097433736198
0.9002730505727681
0.8899634891956472
0.877734960144445
0.866123030236532
0.8523371874087363
0.8387651531815565
0.8236854464835346
0.8075152340968966
0.7903169358662816
0.7671858514498182
0.715376977753137
0.6238689499785363
0.5524347480960528
0.5023516415545054
0.4800980761191977
0.4689033397297016
0.4621328612569028
0.4578859646387249
0.454880843125144
0.4523733701707786
0.4483113342278292
0.4369658440360075
0.4465125858549104
0.432599168073332
0.4110548022527596
0.4151271956981937
0.5227973669362942
0.5083316798791219
0.4929559538865829
0.4694208298000546
0.4403606147119606
0.4217442440315997
0.4612988796752725
0.578538672120097
0.6770390756765875
0.6565134685707675
0.6218997149852361
0.5955968046445389
0.6059224148943417
0.6263558178344368
0.6438706357110631
0.63320157069308
0.6155536076834466
0.6032045753432077
0.6116886616781764
0.6199243231740709
0.6245204175507191
0.6275951732693722
0.6292891181005357
0.6308599172879709
0.6326585583989798
0.6341952632923443
0.6352727750325891
0.6353215152394399
0.6335397606234316
0.6171228161135626
0.5762604517102841
0.4666858881053069
0.5325468770965254
0.6482391968643487
0.6018620561886036
0.5344807960121233
0.5969947526135284
0.603329000960027
0.5833550905642255
0.6340128405269793
0.4879797162000848
0.6186743124589885
0.9850556681186281
0.9770572956477837
0.9700578305172732
0.9626189748804994
0.9549613826393677
0.9467691928224498
0.9383904311481719
0.9292806633548542
0.9202442470234621
0.9099874947532686
0.899504237483874
0.8892275594188661
0.8770252874679655
0.8654319958513857
0.8517091712567226
0.8382298815051826
0.8231870153519477
0.8070967255815418
0.7899303239370009
0.7668582376860331
0.715670839807344
0.6255922078503185
0.5548795727705461
0.5059273740657079
0.4837747079717372
0.4730222728948938
0.4669335251366258
0.4630808425172338
0.4606222533962558
0.4568014692724685
0.4549383124279453
0.4429970255899359
0.4523367322200491
0.4376700869810896
0.4190772067644669
0.4151450161259408
0.5380454139492749
0.52290357766494
0.5083238248066912
0.4929948797136589
0.4691809759467978
0.440551348538503
0.4216860827809933
0.46115791605762
0.5784873982465469
0.6765096851344434
0.6563586043129681
0.6224860062024185
0.5959404849150428
0.6055642980068923
0.6259418096806266
0.643641850456077
0.6331443213728574
0.6156338229863091
0.6031450019590954
0.611377282451031
0.6195746989284309
0.6241353679106171
0.6272197215213315
0.6289288383064152
0.6303705067138841
0.6319311299664144
0.6334367553190086
0.6348219059949833
0.6356038982135359
0.6343388433795569
0.6103137566579973
0.6272320330882605
0.565687219254893
0.5293984340521819
0.4565325648527712
0.6364940962563079
0.6147467512737587
0.5360851757231828
0.5950536266285088
0.6054496350580987
0.5665926415165834
0.6422833729648751
0.5496476744786014
0.6222304047286125
0.9915996202518614
0.9837185125479124
0.9764231785503779
0.9694185301140186
0.9619448777632413
0.9541705518318253
0.945988447853452
0.9375766771301508
0.928468647032762
0.9194215003934642
0.9091774430708351
0.8986807139733846
0.8884731815944061
0.8763279981299371
0.8648009657186296
0.8511759224865691
0.8377451994684255
0.8227614740408432
0.8066922260167912
0.7895500210596643
0.7665648723627227
0.7160206862537151
0.6274342504463279
0.5578872101047049
0.5101382413055681
0.4883431385688012
0.4780867471608584
0.4723839457067581
0.4693408173465354
0.4656379870137107
0.4636967624958724
0.4589698910289342
0.4422189275265443
0.4512457907791531
0.45837880754917
0.43964363092793
0.4150888897402323
0.4370057906211793
0.4139845950881102
0.553555574515752
0.5380397130633112
0.5228139541681787
0.5082711459119734
0.4929100084819261
0.4692518138092585
0.4401694865782687
0.4216422036736199
0.4608871007554609
0.5780934172934273
0.6765661546394688
0.6561416750144821
0.6215598493876401
0.5950920161436195
0.6051779110407036
0.6255265492190492
0.6429969335291603
0.6329759586484944
0.6154786594496696
0.6030984567577373
0.6110226230566566
0.6191748745052573
0.6237041739653375
0.6267901039067734
0.6285033525250946
0.6298261746362787
0.6311750521077564
0.6325916255450391
0.6344888410092308
0.6361967317253598
0.6359860572107006
0.6207325463241233
0.6283093278599472
0.5748605965644856
0.5539991513599762
0.4801155345009953
0.6417752388935268
0.6028000169917048
0.4952998375195808
0.6276293382148003
0.5800244958467246
0.5914737410846911
0.6330032111318673
0.6342114602946602
0.5040053636072682
0.997272213061342
0.9898303577428353
0.983120406948511
0.9758331023047295
0.9687979949137588
0.9612447248970887
0.9534676626660743
0.9452171510819072
0.9367728287110026
0.9276572419366955
0.9186263271480631
0.908414765442684
0.8979640749184908
0.8877775602168888
0.8756963776763868
0.8642578247650584
0.8506737663714071
0.8372892985142307
0.8223323215724634
0.806306594699704
0.7891853971230699
0.7663141938483919
0.716579530338128
0.6298171338873637
0.5613700782377267
0.514932771337124
0.493905779412554
0.4840268789526598
0.4792842989014964
0.4751192806074291
0.4657148936544986
0.4733492932234595
0.4671841397061057
0.4663341567199467
0.447393252842796
0.4558556146587296
0.4625234142708516
0.4452966339298607
0.4242062960954088
0.4438380366678432
0.4146189210093892
0.5689239583511372
0.5535925185361483
0.5380177916526396
0.5227679186426516
0.5082052891964315
0.4928919977889997
0.4691582529063993
0.4404863403774437
0.4215506264452149
0.4607468300039017
0.5778019693144486
0.67598572690682
0.6559290564902968
0.621949308544644
0.5954120130878342
0.604813347220574
0.6250933149633161
0.642974644120014
0.6330160275576688
0.6156138361014531
0.60311507818262
0.6106568791585312
0.6187280172911996
0.6232122342388151
0.6262800936008124
0.6279771213311127
0.6292339229936098
0.6303956144065718
0.6321437049330759
0.6345223548840745
0.6362080577034247
0.6351557792872849
0.6360733905821336
0.6222783934481743
0.6330258387874286
0.6018269669609151
0.5596207536679221
0.5425133592660228
0.6458528730505578
0.6238703642760438
0.4946707663644891
0.6332353125839473
0.5700753831744202
0.5875727879522664
0.6413287957963899
0.6397569542795329
0.4986269408524205
1.002861851143823
0.9956417627646668
0.9890585351247811
0.9824536434043186
0.9752269111507275
0.9680313818262256
0.960485227415309
0.9526591550902785
0.9443946191221991
0.9359343038723805
0.9268409795967683
0.917817504167477
0.9076509705789207
0.8972439676727847
0.8871319989776595
0.8751468188780079
0.863746506407219
0.8502157621276211
0.8368624419850731
0.8219296192422721
0.805935497953269
0.7888217649481615
0.7660296681192342
0.717211307529527
0.6325122367770464
0.5655040657413388
0.5207474700450648
0.5003904224757773
0.4920354128488902
0.4838993437095679
0.4819401510276275
0.4707399558758192
0.475615151004214
0.4714083561622842
0.4669046624771238
0.4543065401586676
0.462305882670075
0.4643108098466475
0.4498336518890156
0.4421484169801522
0.4207736651159861
0.4497103953175194
0.4329491315763768
0.5856623984897812
0.5689410952906593
0.5535672063902204
0.537894393896076