/*--------------------------------*- C++ -*----------------------------------*\
| =========                 |                                                 |
| \\      /  F ield         | OpenFOAM: The Open Source CFD Toolbox           |
|  \\    /   O peration     | Version:  v1912                                 |
|   \\  /    A nd           | Website:  www.openfoam.com                      |
|    \\/     M anipulation  |                                                 |
\*---------------------------------------------------------------------------*/
FoamFile
{
    version     2.0;
    format      ascii;
    class       volScalarField;
    location    "7000";
    object      T;
}
// * * * * * * * * * * * * * * * * * * * * * * * * * * * * * * * * * * * * * //

dimensions      [0 0 0 1 0 0 0];


internalField   nonuniform List<scalar> 
18230
(
297.0033101672244
272.4230928871761
293.9677321296609
298.5604171931511
142.5206505708917
271.9231777610667
287.9538728600922
296.8589341750861
299.7809468055136
175.9283083391589
140.7182935057124
270.6528436318513
203.4635554515669
292.7956764086227
300.5930163634897
300.9440432167049
191.2604380817943
176.8359300222016
141.6347759204074
268.2520008900315
165.4474335460346
218.0063404560596
295.1140686884368
304.1815759128764
301.8798397330834
192.8109062532887
191.4378767320159
177.2340298786557
142.287513033597
265.9545853658303
216.6326938043089
165.8512935591629
223.3752757933222
296.7128512486268
307.0269271918301
302.5740654140461
194.0422458544551
192.9705439171705
191.6666088558386
177.9405310134674
143.2780198422857
264.0580082351389
234.9484692214162
216.5200058849312
166.2162634833909
226.2712569694456
297.8679690873275
308.8723061569493
303.3381329339524
195.6092914795669
194.2056861502489
193.1636362167477
191.8654658383531
178.6939089039921
144.4183791320593
261.9143521236984
236.9825991995586
234.6817772524632
216.9103727119382
166.2312658412267
226.6850990454341
299.2125725256095
309.895935317241
303.585838931645
197.3554996242789
195.7906530278524
194.399399940719
193.3237684783838
192.0183957865402
179.3306530474062
145.7352949880997
259.4324084138041
238.3142557494479
236.6496902844545
234.5432808566663
217.4691179534046
166.8860581309561
226.0823597965773
300.4375262963504
310.4673491505586
303.6893706536027
199.3009682964581
197.5513528691365
195.9799123034441
194.5677717600676
193.4618828699293
192.1822039868161
180.2625105821469
147.119043324523
256.3334668479154
238.5053772101467
238.0427845475509
236.5876389748969
234.5272739384622
217.7208268440577
167.5689543061805
225.8620899738451
301.5634438495296
310.9251365511228
303.0685499880973
201.5831364746148
199.5239541842156
197.7523834949869
196.1369955021205
194.6987076441281
193.5984011418553
192.326641879445
181.1047810592296
148.6992472596256
252.6975545411956
238.360459555288
238.1797411184034
237.8910804532787
236.4872724419612
234.421954780775
218.2977372921885
168.60409717656
224.9780842480243
302.5241237980664
311.198466311116
301.258921604549
203.9796914778555
201.8344045598577
199.7022762285403
197.8892151906402
196.2748619106051
194.8275156226484
193.7388346431586
192.5259971040953
182.1111092015609
150.4751310864152
249.4635141019812
238.0214110949143
238.0330103720836
238.0802843342536
237.7983841974406
236.4365558538236
234.3945498669246
218.5325754406157
169.9409444111667
222.4516116114692
303.4491448316944
311.5283081232317
298.5492918365878
207.791571376107
204.2811208997516
201.9986670396172
199.8453735337411
198.0252155558344
196.4049695661438
194.9706156869202
193.8956254950401
192.7283391422611
182.9980930104426
152.3779863201983
246.0302144218219
237.5464435104138
237.7093397179046
237.9207855989016
238.0071627400056
237.7298554606873
236.3682770813421
234.3666060557013
218.9845934268027
171.3533173279112
219.4497933925448
304.2098383288861
311.6541509626408
294.7956242368236
216.5537257380594
208.1810049448744
204.3998591778621
202.1216062065971
199.9769558086751
198.1591173560407
196.5564308088462
195.1275023780143
194.074971415905
192.9710889563444
184.0320899825865
154.4792536394739
242.6166540175073
237.2632450678571
237.2400368778319
237.5922923482012
237.8329721369759
237.9247362245156
237.6486133050157
236.3210169893231
234.374083078175
219.4973152601864
173.2090642681127
215.2955204270198
304.9034364891718
311.9746554515812
291.1051730808901
228.3042963174013
216.8928984601575
208.2720668498606
204.5182931139715
202.2503875237379
200.1052710932472
198.2973652481665
196.7166909380683
195.3127785933284
194.2819792557456
193.2195192663015
185.1729199398768
156.7716746453881
239.1256618030112
236.7371140077984
236.9523709659778
237.1291134204282
237.5117435571865
237.7601929941902
237.8547734934104
237.5949210194889
236.2686976032784
234.3194051486301
220.0926834449132
175.2689179897061
210.906650462043
305.3870475679172
311.9889764700928
287.7142661404222
242.6588156712702
228.5610226934351
216.9908565831576
208.3995975968357
204.6540068880678
202.3729267210811
200.264084389169
198.475217920996
196.9085779634347
195.5166150213549
194.5043508085724
193.4908227613041
186.34111096793
159.1526193254485
235.1299643957215
235.9602252445642
236.4307123061303
236.8564419708383
237.0505390347977
237.4396768624062
237.6805322078899
237.7806828586929
237.5173978088941
236.2552887420819
234.3953299017011
220.6435815680328
177.531534286016
206.903343501982
304.5153625136844
311.4284158514162
284.8103803701077
249.763849549635
242.8916334426027
228.752294541258
217.1745849584831
208.4918325893353
204.7811771824612
202.5323108204215
200.4284018042345
198.6617738206677
197.1181180050149
195.7442048536486
194.7441396427375
193.7686302018664
187.5489900725932
161.6716534594792
230.6474504326742
234.6302840548024
235.6470218211536
236.3349340009952
236.7688615590008
236.9763184540577
237.3645653118328
237.619280735853
237.7213637396957
237.4880985457851
236.226534763128
234.4107755326504
221.4148073709921
180.090553950567
202.4438733689097
301.3782637361176
310.0274956141607
282.5557375541468
252.721685026509
250.121773926327
243.0995474597189
228.8492115918335
217.3477915940463
208.6515540001192
204.929767387558
202.689307572315
200.6229465241866
198.8824312026822
197.3536654067779
195.9874879497168
194.9883214882217
194.0533796284452
188.6803352332082
164.1635716965322
225.8903843634928
232.995730856353
234.3133806071004
235.5504193735111
236.2517566257376
236.7042721064677
236.9089599091657
237.2939224157771
237.5569238266769
237.6687706331713
237.4396664031804
236.2688883034684
234.5251523915353
222.1832453952715
182.733281367242
196.5109215485548
296.0903051965703
308.574671205207
281.2004371955558
254.8692390709091
253.0357711878266
250.2473388458504
243.2614329614425
229.0496702506659
217.4691395624372
208.8126476849739
205.1011207529071
202.8878822679582
200.8393821723831
199.1107025444429
197.6005728798193
196.2352405694183
195.2364234369878
194.3320775644774
189.7673457820997
166.6362277324168
221.102144995775
234.6400725917068
232.6916416226617
234.2012783019358
235.4684015856366
236.1784835840298
236.6261985194523
236.8424965806226
237.2408879527348
237.5108544022826
237.6235477418715
237.4404411607472
236.3082592638641
234.6353510556287
223.1049180592577
185.1366590488749
190.4004383986989
289.9062441127202
306.6073735257581
280.2343064156524
256.8679545016776
255.1959695071369
253.1986466412067
250.3932243434879
243.3997882310564
229.1503051255407
217.6211889333372
209.0003028127178
205.2978643661045
203.0881894607909
201.0719766802703
199.360197890218
197.8578451021892
196.4890267461691
195.4795381756963
194.6160234676301
190.7831268382625
169.05348222267
216.5116062933343
237.0958169990267
234.3400474129258
232.614433019234
234.1203330168236
235.3932043015763
236.1099989624603
236.5628418673417
236.7911217033128
237.1833802879634
237.4712310209649
237.608270996968
237.4513299945262
236.3760428459102
234.7916816145252
224.0458042648256
187.2194327812843
185.627599952526
282.5642711395686
304.0410192901386
279.4939414127055
258.686389411655
257.1662500659721
255.3589530024459
253.3574955658124
250.533803718891
243.5759771471083
229.4367638510081
217.8345821055586
209.1919079898929
205.5042066977745
203.3203132905721
201.3186367157578
199.6161040377947
198.1156535697327
196.7417103852337
195.7311286798547
194.9091884848517
191.7247933940878
171.4306566793198
212.4344818118618
238.5945783506575
236.8921384219333
234.2646684076286
232.5502710153917
234.0696128068755
235.3293105311682
236.0511003965856
236.5035359485859
236.7435697000451
237.1570123052315
237.4460414220792
237.6140816146083
237.4871576072426
236.4713855254081
234.9503316311992
225.0324165783962
189.8139260147168
181.359985776949
274.6160695628258
301.3513339519054
279.2871208204939
260.2685434756303
258.9620708337928
257.3310901404707
255.5193242859003
253.5185014173979
250.7370136168625
243.7370552028465
229.559962404141
218.0655865477785
209.4282481301233
205.7430555596207
203.5452270088764
201.571813236198
199.8696336478943
198.3762697798789
197.0099353112914
196.0048031483747
195.2243877712815
192.621815858286
173.7098945785309
209.2938152435737
235.9244419466455
238.3491251394469
236.8093280133328
234.2024103630357
232.5024656186115
233.9996054544701
235.2749525969159
235.9956862243549
236.4680988087356
236.7064171113066
237.1214946945893
237.4452716095786
237.6358206072886
237.5368244316008
236.5967751800802
235.2336610828505
226.0179341021289
193.9917510492181
180.1763430457567
266.6056062066767
299.0612465095262
279.1627640653278
261.7272266787938
260.5487178358078
259.1230625710782
257.4692635586829
255.6625280655833
253.688473128391
250.9180441883256
243.9756335981989
229.8195599440666
218.2607813141246
209.6648251831907
205.9645168546716
203.7861748386859
201.8240883903782
200.1275848572095
198.6469164482626
197.3126640080714
196.3071689576983
195.5836134637603
193.4464163776134
175.9079740029977
207.1711475311874
232.6761125328875
235.680491568725
238.3083202123254
236.7528913667969
234.1469469028832
232.4476521262732
233.9433543033211
235.2225698110196
235.9576466917565
236.4299953330191
236.6928592471145
237.1219043585557
237.4646466033478
237.6717023474547
237.6143956776062
236.7548859145477
235.4457568825517
227.0321300346749
198.726385586798
180.5657954994239
259.4317160697185
296.782193850516
278.5064058403271
263.0797951616416
262.0635777427069
260.6808092227457
259.2616413672899
257.6205465100933
255.8383526879196
253.8742617192516
251.1164054348114
244.1453205566335
230.0564075524245
218.5269660737961
209.9168842010561
206.2112750868045
204.0151757584516
202.0755253759815
200.3915595760334
198.9488245795379
197.6570481761886
196.6522123025929
195.9490473859511
194.2135736144631
178.0534687642492
206.2017889822989
231.196225060456
232.4246389745284
235.6721014290074
238.2731224084079
236.7229361780261
234.1154407985822
232.4059607409647
233.9062803149033
235.1901683915981
235.9311593215451
236.4175021229012
236.6892840964866
237.1357313041066
237.5017004232988
237.7329916690731
237.7195332429444
236.9285140704521
235.7120128531372
228.0113661037831
202.9894811481949
181.7218478207093
253.4824691269148
294.5587257591258
276.8863262347292
264.2798958224909
263.3559200533214
262.2314937345445
260.8285780127316
259.4135117372558
257.7975443209593
256.0119693525277
254.0771004043258
251.3165753841105
244.4064607970155
230.29096430587
218.7669202517187
210.1545908567376
206.4366572037331
204.2531820772446
202.325351224911
200.6870480632635
199.2896734259706
198.0588717454583
197.0476421353879
196.3494986645029
194.9123506886088
180.1910257839662
206.7793862335193
234.5763711089168
230.7369410180202
232.3777048832208
235.5872806166929
238.2441094587041
236.677886679729
234.082620265222
232.3692008230711
233.8655871809151
235.1660707242182
235.9136687411756
236.4097500688563
236.7108477870425
237.1695728594761
237.5622726654241
237.7999323796179
237.8099751742935
237.0914611789152
235.928433671586
228.9876709519576
206.7008832038499
183.3880538901257
249.0329250235415
292.4234513205911
274.6718565029619
265.4548828763129
264.6877141767003
263.5386438175013
262.3962836373046
260.9897768950794
259.5976979248942
257.9885692742291
256.2145932227876
254.2845516415363
251.5259849311648
244.6056973592931
230.5212602737182
219.0120097910872
210.4089266780135
206.6816535502654
204.4768341370628
202.6041581238177
201.0188026907727
199.6827583548478
198.5120821425827
197.5119279815428
196.7899548349993
195.5723557825183
182.3128906351901
208.7979128790448
239.6186531316575
234.3927709431884
230.6876450545099
232.3452547741763
235.5593728303507
238.2144181997393
236.646990365701
234.0502242967466
232.3533120274828
233.8530750852962
235.1556795188872
235.9153438305673
236.4321316783426
236.7507531101669
237.2241195753342
237.6407723155949
237.8800017212338
237.9104465810913
237.2561969460587
236.1903528782947
229.9221802454472
210.0114906136511
185.393427992767
246.1349029987344
290.2680298881644
272.1111536859194
266.5992500620065
265.8636677170049
264.8875035672908
263.7094704795078
262.5672775314418
261.1876112404844
259.7941466792703
258.189997426999
256.4271659379743
254.4921790076381
251.7442667785921
244.8393303480269
230.7729619011847
219.245736310472
210.6454685230141
206.8979006171922
204.7296185820249
202.9141692221801
201.4024720709496
200.1229759180745
199.0371684104621
198.0417672773041
197.2904175520523
196.2015295480999
184.4751219962705
211.5771232958043
242.4763050801635
239.5090732380562
234.3892017414495
230.6263899851791
232.3357701197812
235.5219719601135
238.1964631362288
236.6392692567281
234.0372560806592
232.3474594284783
233.8444751652862
235.1607261440487
235.9418552789063
236.4743400216416
236.8146315905109
237.2961640365731
237.7095212454069
237.9308238479516
237.9866895670017
237.4208535056945
236.4197939920288
230.7988576027573
212.9727091354762
187.654529490661
244.3154417940242
288.2258135419614
269.5376004126161
267.7098684928341
266.9996512849286
266.0627388299533
265.078579015833
263.9020987386584
262.76581332602
261.3934808740515
260.010625954156
258.4070272417363
256.6462553064101
254.7140619040176
251.9513444502421
245.0504242653794
231.0200332438083
219.4986352551481
210.9063718310047
207.1646817558335
204.9991608814913
203.2747445574557
201.824978596745
200.6332703471048
199.6171833632417
198.6611042446542
197.8736132896966
196.8259700344952
186.592428762659
214.8968352170531
226.7438083404104
242.2808697432943
239.4644223267939
234.3443071889697
230.6144048733388
232.3121088261104
235.5190241029781
238.1879015962734
236.6395992283408
234.0475108103537
232.3678516524078
233.858543647044
235.1923013330967
235.9866071979594
236.5381987993947
236.8962853865384
237.3538204773314
237.7640911415363
238.0161223109045
238.065252423237
237.5696079005644
236.6658578849229
231.6027653674713
215.61001787425
190.0803076709977
243.5654445872504
286.1561596623293
266.7115178453425
268.6882999050405
268.1134737510234
267.2038191522863
266.2583179890121
265.2666715191825
264.1141742864746
262.9834446021733
261.6158928757901
260.2279442642827
258.6362186386281
256.863595740697
254.927649420515
252.1601401842508
245.2487344670539
231.2423058515812
219.7282809170374
211.1821564439985
207.4391230825289
205.3307203037029
203.6618551931975
202.3150577256264
201.1894720815843
200.2801525940564
199.3614097233032
198.5368277391524
197.4945047112477
188.4887827119159
218.363648836741
207.6508942127829
226.7341225085107
242.3157071826234
239.4465573203363
234.3900644456671
230.6064829387978
232.3137449198067
235.5031932721562
238.188280457434
236.6584695156643
234.075453807833
232.4112959957596
233.9008129998442
235.2395696612132
236.0500566463828
236.6187452914507
236.9642358198751
237.4008679911917
237.7955772468468
238.0045939915674
238.1120424438328
237.7147890111332
236.8976316247622
232.3408869930063
217.9397210127243
192.6733709771445
243.8446762026761
284.0357587732229
264.609175183062
269.6503511975453
269.0887200283793
268.3094166663944
267.390260567906
266.4411510249969
265.4839870467737
264.3252544071503
263.2101698444587
261.8462483644413
260.4585479665969
258.8537376015503
257.0843181354416
255.1290194059441
252.3468639949033
245.4446226171569
231.4728270892736
219.9970754238674
211.5245875274161
207.784213184176
205.6780460609829
204.1131689278635
202.8405060470183
201.8278179209532
200.9994506390363
200.1702053141943
199.2875223169292
198.2147513210832
190.1261896690631
221.4264834035433
200.0424598946722
207.6204521819681
226.6804664363669
242.3052942209361
239.4447472324632
234.3753506730411
230.6307418462407
232.3141956115847
235.5306185479064
238.2026544205623
236.697024367158
234.1192332766404
232.4822380175207
233.9541668549153
235.3075587800616
236.1277651257127
236.6843864387946
237.0238921994176
237.4330748854178
237.833199918478
238.0245877656143
238.1546675431604
237.8429840533284
237.1195706412176
233.0063229628151
219.9646017978066
195.7006368548276
244.1834808561496
281.7376684866933
258.6064043564694
270.5457417410191
270.0578549220086
269.2871836864691
268.5082205939011
267.589265594401
266.6466925657383
265.6951582782939
264.5578854412512
263.443163627586
262.0761514693419
260.6879878731934
259.0767355867778
257.2928533635788
255.3223230288343
252.5198279854851
245.6208322970148
231.7217346561683
220.2999950877958
211.8617450817916
208.1417664751266
206.0943702446694
204.5907972348304
203.4429732830389
202.5173323889572
201.8043925407768
201.0656509617985
200.1201897759122
199.0386073518035
191.709880902838
219.9220070652566
203.407130949989
199.940021727723
207.5100227773162
226.6457812102236
242.3006868679051
239.4755577560278
234.411735507031
230.6653990484822
232.337895841115
235.5530458731957
238.2317532967883
236.7496273389239
234.2010351458405
232.5632312095833
234.0234940223868
235.3852539897429
236.1907950449195
236.7421733330836
237.0666647435834
237.4493165124448
237.8432134430563
238.0592014441485
238.180769244363
237.9526351421878
237.3307328948301
233.5948051954531
221.6634362902368
199.4858176474058
242.1569880737039
280.4652925628392
269.1523608951687
238.0873808933691
271.3993996075659
270.9657890286952
270.2635008314855
269.4850225682025
268.6958922710103
267.7922221857118
266.8667596819822
265.9269661450964
264.7905240551858
263.6776099732378
262.301140769188
260.9098287507842
259.2853400919254
257.4855476949028
255.4979767322693
252.6673757331441
245.7753461547726
231.976119939347
220.6147318232094
212.2831730489461
208.5679948841031
206.5396247672415
205.1435301611558
204.0894744609715
203.2955602285465
202.6735240529881
202.0201706972024
201.0697119265626
199.8823617369194
192.2007698454592
204.5082355700926
208.6404919364485
203.3471345952401
199.9615087157681
207.4774207987954
226.6797207312001
242.3519058973388
239.5179231070369
234.4638080576306
230.7415110561951
232.3850810407173
235.6100618873343
238.2680715148162
236.8358548743198
234.3001874720951
232.6580103790655
234.107272593248
235.4471061329149
236.2455716059189
236.7810304561446
237.1005352514485
237.4545467687822
237.8368701006767
238.0661464844027
238.1889532942693
238.0432669745892
237.5228711515887
234.1016250980169
223.0562925477532
203.7225943305249
238.705492980743
266.5566283982184
268.2303495891388
237.2476374101124
272.215127704121
271.8299146101309
271.1728321067567
270.4625611796696
269.6840851346935
268.9091939342656
268.0025289848389
267.0901498415577
266.1539012974022
265.0222399039444
263.9026981594093
262.5247542314394
261.1187406703644
259.4820166226131
257.6633577161571
255.6429506045078
252.8026908932159
245.9403204156268
232.2761729803277
220.9844647789302
212.729733785399
209.0320087069102
207.0651937452082
205.7450529254073
204.8224282791269
204.134352768523
203.6098052511647
203.0443445120927
202.0305331233434
201.0219572078049
196.0642506787116
202.2194090859137
212.7493890470203
208.5878369089205
203.3393729462433
199.9697526090309
207.5757294806247
226.651455126995
242.3804931678154
239.5562201873088
234.4968924072758
230.7851918847184
232.4444088085366
235.6785620999504
238.3217618296923
236.9404662244644
234.3879862016736
232.7625291780333
234.166760136023
235.4986509732308
236.2789820036632
236.8093952748951
237.1206993354614
237.4513892183936
237.8148858063476
238.0548167325755
238.1932402687237
238.113479394308
237.6711615477306
234.4930901478454
224.0266879801168
206.5705480092596
236.8982023061677
229.4068328935448
272.1487741511336
273.5058015910283
252.3493035291599
225.0311305313779
240.9478847294323
273.0246426944676
272.6646950979405
272.039400135371
271.3680787260013
270.6575076803038
269.8968590639057
269.1189412518416
268.2318782035769
267.3250293958696
266.3896839153096
265.2518085159195
264.1268229822946
262.7329559154356
261.3157600538779
259.657767289676
257.8103088029593
255.7794727906646
252.9239373987101
246.1074757682578
232.591811830136
221.3915724649811
213.2603685034018
209.5710164354336
207.6548193962264
206.4416617981901
205.6284611941652
205.0614093691213
204.6276075686829
204.0585545527052
203.2971578908782
202.3212071666233
198.7294801839338
199.5233242343766
215.2986126797996
212.7051722627184
208.5766335048211
203.334647978507
199.9938373082195
207.4807318202785
226.7109229069231
242.39883243509
239.6406555560968
234.5935978326476
230.8937746615492
232.525783946382
235.7541553025693
238.4130940941037
237.0462368489652
234.5114559788351
232.8625672856277
234.2184657746547
235.5355506057749
236.3023889065334
236.8250297153652
237.1321243421888
237.4366220161539
237.7723594255173
238.0230373574501
238.2052984495901
238.1193573020067
237.7523731201775
234.7307181648067
224.4813688860907
204.3687969817196
218.5985706473642
237.7355435878723
232.6359117081261
259.7474739473108
275.7944813886843
251.4111177291212
227.38623792305
238.9474985667414
273.8384396150096
273.4424263202724
272.8663795691705
272.2303105425828
271.5576005461957
270.8659490516896
270.108492695782
269.3470550717709
268.4639209888626
267.5559092991278
266.6122869534535
265.4732942841834
264.3359602315746
262.9320579758968
261.4926674821628
259.8086014463141
257.9460828077746
255.89635475139
253.0330135187464
246.2769629281682
232.9273891506855
221.8504462143395
213.8410553770871
210.1949656300089
208.3516150971274
207.2361111423773
206.5436542181869
206.0775662956884
205.62762560427
205.2497926790519
203.2127923111032
205.0387154422602
202.597175606802
198.3073731840089
198.9176583806263
217.6897714562353
215.2652452882861
212.7146267508967
208.6282601506821
203.3977307950641
200.0037427303169
207.5415186353853
226.7313723722256
242.4595028081725
239.709949815791
234.671241293007
230.9799194291241
232.6053210331266
235.8573393879687
238.5025020282749
237.1682223304008
234.6040561093282
232.9247008802971
234.2480152541813
235.5565498790764
236.312017369657
236.829597015103
237.1322290617164
237.407786347321
237.7115604991165
237.95993543735
238.1270781214305
238.1164213664181
237.6993923957389
235.0581431849551
228.5989134495398
210.2118094334911
221.4491678931414
240.4427182589959
237.281711817345
223.2826363091801
265.0614185203266
262.1233870279747
273.9546500484335
241.766750254694
212.7907736557031
237.7321429580883
274.5043805668064
274.189021056482
273.6503373062932
273.0569528600209
272.425809570709
271.7735973391067
271.0749761754665
270.338214681425
269.5777470757269
268.7017077277936
267.7854941423949
266.8397954590042
265.6843656928855
264.5331470270854
263.1095692950503
261.6404235399073
259.9421222908035
258.0661329932305
256.0074538935839
253.1345458760354
246.4479329445725
233.3082666549766
222.3699797924169
214.5354571892658
210.933045250893
209.1660157140708
208.16554368505
207.5590366626568
207.1280574348017
206.8526679318604
206.6223357047443
204.5374417305846
206.2551400576388
203.6295069053386
200.1023858058383
199.4493467018189
220.1333585419143
217.6598005834455
215.2846993413691
212.7267682466123
208.6187488877343
203.3954306711388
200.0356005576806
207.5383276804478
226.8140129467554
242.5332782294248
239.8118212523747
234.7935107461803
231.1146316086459
232.7150384408202
235.9498020414058
238.593520318055
237.2785904142646
234.7083630808211
232.992508960742
234.2690094026058
235.5656273144955
236.30928958941
236.8217717382034
237.1166545230011
237.3675717390278
237.6325221651793
237.8794149139721
238.0200013775092
237.9987342228995
237.4978672546995
233.89803634848
236.3235172236829
226.8901204215983
220.8075301336713
208.4974329018191
241.7350418371965
242.8876390937925
222.4762790410221
259.3398719773654
256.9958436751276
272.8780335469641
240.0703431577202
226.5233408646779
236.7742707765751
274.9918148101082
274.8651564018681
274.3860173268897
273.8226544218505
273.2417905562701
272.6324311890174
271.9830032635046
271.2999241952162
270.5685054883867
269.8117216522617
268.9308316553167
268.0077759192336
267.0461701601342
265.8819608263046
264.7110482031462
263.2577094305854
261.7776619899278
260.0625024888217
258.1756895340295
256.1078469823478
253.2286685697164
246.6215610473857
233.7128726474978
222.9563435015271
215.3527674675213
211.8155343936106
210.1298095645716
209.2160372336226
208.6901128768802
208.3671648674118
208.2531220246519
207.4621351245965
204.4370624100838
206.1032891587641
207.395154804096
204.0284634759637
199.4423216925045
203.5461633653759
199.1666652636146
222.605674906195
220.1225127890836
217.6813575578417
215.3025131816136
212.753361148033
208.6656718704759
203.4561733493388
200.0662732473876
207.5663096776842
226.8377425693254
242.5943148457793
239.9247110774469
234.908554864583
231.247417455463
232.81645435861
236.037831877264
238.7083861700305
237.3798523614753
234.7848163329137
233.0480548174876
234.2765616010718
235.559852305108
236.2932093347713
236.7949327787845
237.085929022527
237.3124363953008
237.5355474447524
237.7217008693658
237.7952654786413
237.7314178403873
237.6018662474728
235.2314655037323
236.3896311796563
228.2127115532612
224.8900350296879
212.1465512127065
240.9553044853146
234.4700175777593
215.8835012836073
246.2103200288795
267.1681982564348
265.1583411795943
244.1655809130402
239.2986994682819
217.2275284809921
275.7276314013048
275.4624418954073
275.0406637745444
274.548098137739
273.9974476180383
273.4520213075886
272.8447366098449
272.2110378041947
271.5304142912826
270.8052903247512
270.0395532511625
269.1578247834985
268.2222270529248
267.2443568991281
266.0602862222938
264.8599168526445
263.3937326094314
261.8951544315302
260.1706467549189
258.2762195353444
256.1990212542465
253.320701711291
246.8141754195218
234.1804452152886
223.626483596878
216.2572811514685
212.850105456555
211.2535540967354
210.4421980557035
210.1615268430561
208.5675815946991
209.9264188552067
208.9672533707155
208.8133398609752
205.4285950488306
206.9808546459394
208.1807664424548
205.0218783465658
200.9994188224615
204.6500192282836
199.236822767692
224.9715030147231
222.5827003692185
220.1492638597632
217.703421587008
215.3333223964184
212.7944637752671
208.7089045071032
203.4964856649286
200.1175259292236
207.5934680310347
226.9136410479642
242.696680673396
240.0482988336073
235.0564418424892
231.396076820884
232.9147860455966
236.1095630748103
238.7732017265228
237.4663153675627
234.8819136189413
233.1041490003177
234.2740257549225
235.5410038350068
236.2552232278724
236.7511220192681
237.0336634016969
237.2450015711717
237.3854366156305
237.445482506166
237.452487936023
237.6349165676019
237.474530425187
237.5675691679477
235.4171846691389
237.091688884771
232.2586858952154
225.7817388997318
223.0450325611568
239.9247796907855
238.0022659113574
215.0070109463838
242.9866905878588
266.4795818395161
261.9816360488665
240.7474358222953
237.3599748981664
215.3888574532474
276.3307371484123
276.1766967151221
275.6977225498659
275.2263225226986
274.7211445102596
274.2027997040618
273.6553187494796
273.0671390384051
272.4348014968761
271.7656438551259
271.0304727640769
270.2675165877624
269.3656165007754
268.4192029577746
267.4236238745094
266.2104592245046
264.9971174735023
263.5120807711959
262.004768138785
260.2705190319841
258.3682369993996
256.2800088351129
253.4036606238656
247.0110446619207
234.6996303598081
224.3850263333578
217.3142119446469
214.0507797807277
212.6544849476023
211.6652800116772
211.5092979725943
209.6053555303968
210.5270723871828
209.7290501021214
208.9664198244376
206.6837972222004
208.124834285729
208.5029490403079
205.7729721886975
204.2581818984394
200.2434305206584
205.6584313401162
203.3586207846749
227.5369146337174
224.9937683793648
222.6326403608981
220.1642282669463
217.7370562636852
215.3662770547154
212.8252344844657
208.7742248582241
203.5623382620662
200.1619308306021
207.6271213874112
226.9783545009568
242.7784230384032
240.1857163682064
235.1981848141847
231.5230426828198
233.0045354389683
236.1609454905484
238.863841587046
237.5613417976786
234.9532727578452
233.1503209540928
234.2598070850014
235.4980936916922
236.1996632168893
236.6835309340939
236.9606667223624
237.1159132440987
237.1219553370276
237.0870393343635
237.1084434410477
237.477844809819
237.3592065506126
237.4662016716248
236.547336947291
237.1696503899044
232.9753115773925
229.7071768121677
226.8145344947723
240.2311311591202
232.2167159892053
220.6169475846832
215.0070410005956
243.566975167558
256.5290422718901
266.6520545631316
246.9485308694141
239.1952651941313
238.4165993417862
231.1577403991239
276.9621637805147
276.7956032126386
276.396382707079
275.9072022666797
275.4208213300309
274.9286690295601
274.4173959235513
273.8788798301217
273.2938624456904
272.670976546871
271.9952570892381
271.2573794623999
270.4813726679535
269.5637019551643
268.5994569676997
267.57413657611
266.3487407849248
265.115426185337
263.6216089525819
262.1042776043444
260.360834866006
258.4517960168262
256.3533360538048
253.4846423288653
247.2174365782236
235.2796215821562
225.2784965056612
218.4976724233298
215.5078605545794
213.9900821891325
213.3248172924793
212.6731266474538
212.005070408612
210.8167055880457
209.7900490740508
207.423204529114
208.6569291322043
209.4336098832961
207.0491028155159