/*--------------------------------*- C++ -*----------------------------------*\
| =========                 |                                                 |
| \\      /  F ield         | OpenFOAM: The Open Source CFD Toolbox           |
|  \\    /   O peration     | Version:  v1912                                 |
|   \\  /    A nd           | Website:  www.openfoam.com                      |
|    \\/     M anipulation  |                                                 |
\*---------------------------------------------------------------------------*/
FoamFile
{
    version     2.0;
    format      ascii;
    class       volVectorField;
    location    "7000";
    object      U;
}
// * * * * * * * * * * * * * * * * * * * * * * * * * * * * * * * * * * * * * //

dimensions      [0 1 -1 0 0 0 0];


internalField   nonuniform List<vector> 
18230
(
(-70.37202831332372 -30.67427732443299 1.770031765974279e-13)
(80.64606606160535 -1.228774700812558 6.879251059572615e-14)
(-26.90920482242563 -21.73711962026847 1.779667553222235e-13)
(-62.71208176989296 -26.59457724448171 1.695745660788618e-13)
(516.4279488566875 -164.7747221227663 3.955399831915454e-14)
(113.4146505305612 -0.1762122283278682 8.215057768210085e-14)
(-27.49676587419815 -44.06943817401032 1.755327027374066e-13)
(-17.1849242268506 -13.41413202475992 1.67474708446499e-13)
(-56.7475848000476 -25.1414976981204 1.726237807090462e-13)
(378.0899825278977 -270.7931500909197 4.266478940631943e-14)
(527.19861076039 -169.8150687983631 7.121624606043465e-14)
(127.9571088610433 -5.780239592775179 8.782130441028542e-14)
(-96.75684972814376 -437.8499729080799 1.775273064434186e-13)
(-21.35184723128527 -37.10534974224546 1.760677577380565e-13)
(-10.05795522955348 -6.673022176936192 1.7306388239759e-13)
(-49.85349373594801 -22.53955696691512 1.685740718910978e-13)
(325.6027219567055 -284.0819623230081 3.992696237841055e-14)
(386.6946670554482 -275.1389468667882 9.489784942062746e-14)
(524.8501480511864 -177.1016119097192 8.130292702004542e-14)
(147.6278829212582 -9.817850172552786 8.981973347069754e-14)
(63.07190670243845 -498.0011239288027 1.765209062603841e-13)
(-86.65238572743903 -405.6295157009361 1.819780601929719e-13)
(-16.07713494769497 -29.88194920026849 1.783772016411025e-13)
(-3.078108690478315 0.1375968282069677 1.70278549003993e-13)
(-43.45834506736453 -20.28061320320516 1.699382023744797e-13)
(323.5424105239038 -284.7771425592521 3.708176549041161e-14)
(336.9195288937721 -290.3298627793218 9.987259219725315e-14)
(383.0883312125719 -275.18527040891 8.402264856323253e-14)
(523.2481875199213 -181.7214332149402 8.705525991712604e-14)
(163.8107619689262 -14.27637724356457 9.159368920532025e-14)
(167.5488337560183 -340.339702767182 1.776052452362092e-13)
(63.49874802715057 -491.9091823578448 1.859038829484162e-13)
(-78.65403469546102 -391.8575367153612 1.846669004080284e-13)
(-9.077611385594622 -20.55286785162879 1.793657029381512e-13)
(1.78840501960429 5.212012580473837 1.701278861919149e-13)
(-36.58877082024633 -17.56042394267325 1.661798973824226e-13)
(319.8749656459071 -285.9138775219681 3.583186997780667e-14)
(334.237883519476 -293.4845064000937 1.005957081788437e-13)
(336.3055539448669 -290.400465307299 8.016889624658271e-14)
(383.9922003448712 -276.9058048130574 9.901834101218369e-14)
(520.5482911500378 -188.4165817282906 9.198714416462817e-14)
(178.2875432428607 -20.41135900098047 9.290515750387214e-14)
(171.6833396018444 -269.810879181719 1.768415066077047e-13)
(164.8444138311591 -338.0458305102688 1.907282443890218e-13)
(66.92281780524965 -489.4863259974946 1.867242650471637e-13)
(-70.43195768425628 -381.2778290274983 1.861443638759396e-13)
(-5.562838523285723 -17.78634522570743 1.80484371805545e-13)
(6.939129812236176 10.75500103196411 1.68023355124885e-13)
(-29.56829247014139 -14.99723996507694 1.651440443037524e-13)
(314.1958868251871 -286.3358568044293 3.228510970143863e-14)
(330.022373559751 -294.4099301814924 1.055918442185548e-13)
(330.5477120330805 -291.1380539461045 8.009209870324804e-14)
(339.0859343444943 -292.8637191461447 1.063236339769586e-13)
(382.1532123299173 -277.7660486042732 1.000062246392647e-13)
(517.243009279696 -194.5922076263683 9.68829139685412e-14)
(190.3206024962886 -27.88423403465528 9.428711531742457e-14)
(171.9461359377464 -268.5175474650378 1.770723051877788e-13)
(174.3725459909203 -277.2142184506274 1.923207326705446e-13)
(164.6711906758132 -335.9780410654953 1.849139696544108e-13)
(69.12988501086983 -490.3416093943649 1.893148363922741e-13)
(-62.29037550181017 -377.7402105562106 1.873736666467227e-13)
(-2.238381358706372 -15.06376748952112 1.810022783563031e-13)
(10.79544734805805 15.22778135399507 1.67554475942492e-13)
(-21.61740969013539 -12.28812617583917 1.615103250186232e-13)
(307.7353390073163 -286.7894470543724 2.615293317845573e-14)
(324.3528077037677 -295.0816099883021 1.06538616787316e-13)
(326.4415065827923 -292.1078416771774 8.005360688062753e-14)
(334.0027156030129 -293.9033530986145 1.06657504209736e-13)
(338.2280256210282 -292.3313834737307 9.867423513051383e-14)
(381.6128053020037 -279.1589249348887 1.072775626613979e-13)
(513.2778686885744 -201.335290893206 1.010266542634268e-13)
(202.4909721670754 -36.3376883611135 9.579846982346952e-14)
(170.470018395628 -262.1661211953295 1.771889631518862e-13)
(173.346233535896 -270.9592374291284 1.920422042421236e-13)
(174.3418218626362 -276.741399421968 1.82965860028224e-13)
(166.13835373498 -337.2525396905892 1.930285676805706e-13)
(72.63466803395796 -488.2811601706796 1.88860585200825e-13)
(-53.80989094985924 -376.5274074637631 1.880793528450273e-13)
(1.28969752310754 -13.82315759267276 1.812055503518773e-13)
(13.73508642537788 18.99954119408095 1.670350764024587e-13)
(-11.83458205693753 -8.582966469186806 1.571331440227082e-13)
(301.0482793368381 -287.4709310729932 2.560200858257722e-14)
(318.0203878546359 -295.7083436041543 1.06983823332986e-13)
(320.8829401727556 -292.8882675732034 8.025915030556117e-14)
(329.9636401875591 -294.9903997601154 1.092253806827996e-13)
(333.0895187932085 -293.2378351633017 9.895586461415412e-14)
(339.4693938208618 -293.5975164445814 1.103318190682358e-13)
(379.0417066313399 -280.3098372027882 1.080836632593633e-13)
(508.815119882667 -208.3344455952398 1.045114479632144e-13)
(215.9703485710863 -46.03391722623854 9.750098127055759e-14)
(169.4672177754929 -261.3259312612972 1.747165403894743e-13)
(172.428412250591 -266.1277116073039 1.925457505371089e-13)
(172.3559349427971 -269.3358776567649 1.825478025338599e-13)
(175.8880691853243 -279.21338604259 1.943382719145799e-13)
(166.2210628908187 -335.5383987987761 1.872778355678588e-13)
(76.09370545376969 -486.9769697560321 1.91513023983826e-13)
(-44.02865664069956 -375.6155195112598 1.891072526729272e-13)
(3.647180187697186 -15.70233375505284 1.813872146991488e-13)
(16.17795881878763 22.28510610116716 1.672812694735582e-13)
(0.3960730545270468 -4.267037846586573 1.493047717891985e-13)
(293.1732140474284 -288.0184517600385 2.165490660123499e-14)
(311.3293299987152 -296.447766563336 1.093468105331025e-13)
(314.8120011782048 -293.7472353675861 7.941103322657545e-14)
(324.1212739103333 -295.5450701477698 1.089916980191844e-13)
(328.7459488056759 -294.0635437944103 9.823603222541486e-14)
(334.519669934718 -294.6147346428891 1.10593381953828e-13)
(338.879928440525 -293.2734561052486 1.070724619648283e-13)
(377.7565164617429 -281.7950868480503 1.115461837386133e-13)
(503.8138666813963 -215.3783620486737 1.078719502081531e-13)
(230.4351926247095 -56.59930241121189 9.936884969349896e-14)
(169.4349881879 -261.4724238908915 1.732663949336596e-13)
(172.3811713273223 -265.9341818403777 1.923066455643941e-13)
(171.68231217532 -264.9520986647035 1.818257372322205e-13)
(174.4177118470154 -272.5591456036149 1.944495528062075e-13)
(175.3864769344228 -278.3869962780124 1.853380028044244e-13)
(167.6846525259584 -336.6824756635289 1.971078117520477e-13)
(80.73177854365592 -483.6525951080486 1.918094275171353e-13)
(-33.42387566580152 -376.6676882502092 1.899563732969195e-13)
(5.37869775498753 -20.14817141652548 1.818567415245879e-13)
(19.08961972429304 25.8641063082182 1.681609620926074e-13)
(12.16451819119906 -0.4502961102340831 1.37552136992756e-13)
(285.1312855760501 -288.6392387813084 1.793770636471469e-14)
(303.262733301855 -297.0239031340971 1.111999122729295e-13)
(308.3830933983667 -294.697826182553 8.047358013232113e-14)
(317.9395771412645 -296.3451017239043 1.093652446556862e-13)
(323.1224163541829 -294.8059688824059 9.836640946904334e-14)
(330.2393194530414 -295.5208465623242 1.112708161520718e-13)
(333.9255022683965 -294.165592953704 1.074061890915285e-13)
(339.6923437025565 -294.2639774883187 1.137283248989338e-13)
(375.2095947554914 -283.2499970547082 1.143077695452248e-13)
(498.2228975753488 -222.7647610108511 1.109751212950099e-13)
(242.020090934356 -67.86730166580563 1.012980609697788e-13)
(169.5976232338086 -262.6031979306352 1.738801643645368e-13)
(172.3468259492422 -266.2527614730843 1.928881039833596e-13)
(171.4175605973079 -264.3692340642635 1.814386480332405e-13)
(173.6077368357086 -267.8475006682364 1.94921067571891e-13)
(173.4060836286909 -270.9488918826764 1.847053911316553e-13)
(177.313834247072 -281.4495023440344 1.993850817381178e-13)
(168.0853547660135 -334.5873203403596 1.913729593282485e-13)
(85.39094292563416 -480.6635289625997 1.942657420976808e-13)
(-21.83696472949567 -381.6130575140598 1.911929871218913e-13)
(7.644734782185358 -25.83098306888254 1.824409470097251e-13)
(20.9275047815472 28.26923079788932 1.692741459013788e-13)
(19.10530329879261 1.682881082711476 1.270505570276204e-13)
(273.4809308726515 -291.3035408638992 9.934415981278614e-15)
(294.8571736049128 -297.5425400183408 1.140859979650969e-13)
(300.5789491649733 -295.5139450349549 8.044896248637801e-14)
(311.2185440507972 -297.222889641295 1.12020237819884e-13)
(317.0110526703801 -295.6610568168308 9.854313165293219e-14)
(324.5698226278272 -296.2508304206291 1.115833149000964e-13)
(329.5834193040645 -295.0136785934963 1.072720970465896e-13)
(334.9136265427546 -295.2291612221453 1.135057840155483e-13)
(339.2877089883707 -294.1728857597581 1.156741353154696e-13)
(373.4907749620837 -285.0417857013242 1.169127913278398e-13)
(492.3276602826227 -230.1052365781993 1.144279741088513e-13)
(253.2530767556723 -81.53078396264721 1.032530171711453e-13)
(169.9702763007188 -264.1430377642351 1.728629280961308e-13)
(172.6265526137611 -267.5356763323971 1.932280440105985e-13)
(171.3589041838797 -264.3787211595692 1.806819094133998e-13)
(173.5138582388152 -267.6677729495798 1.947444466790546e-13)
(172.8209831247268 -266.7030108029805 1.843184004558537e-13)
(175.966643713777 -274.9305290675699 1.999391521674002e-13)
(176.6804235923359 -280.3309307337751 1.885429504489396e-13)
(169.5854670144186 -335.8417327477973 1.99972123145731e-13)
(90.18978097195902 -477.6092361357018 1.953395758473199e-13)
(-9.660254004760709 -386.735507440826 1.923494576397684e-13)
(10.91719379882653 -33.04304740701788 1.834230418449581e-13)
(21.28122335727164 29.06533738838932 1.711009672392098e-13)
(25.44455156269371 3.149424955020915 1.195112781747969e-13)
(247.8401534462535 -292.2646004490187 8.445861446119524e-15)
(282.1582382850155 -297.9582294792859 1.178406513488213e-13)
(292.4882431338627 -296.3183301542998 8.02611896454383e-14)
(303.2042849242387 -297.8661432100754 1.13734640514612e-13)
(310.1610007036231 -296.3759644698791 9.840827102495877e-14)
(318.387321437317 -297.092210010946 1.116618972951425e-13)
(323.8891746734819 -295.717971207859 1.073473305200711e-13)
(330.6288846488128 -296.1594837415565 1.138799585197431e-13)
(334.5846951169171 -295.0172847098364 1.159844964136962e-13)
(339.9141720222011 -295.1110817091604 1.185733911192099e-13)
(370.6553020356841 -286.6287945891548 1.214164470579457e-13)
(485.8270519694241 -237.2518721743795 1.177932545018857e-13)
(264.0269954078223 -96.98882321100415 1.054655355817607e-13)
(170.1608140019985 -264.9945611595675 1.681947350238114e-13)
(172.9557055018288 -269.0630363830501 1.944152014876299e-13)
(171.6357833296827 -265.7175605627187 1.795407144638822e-13)
(173.623083756435 -268.0390027030161 1.954751872558814e-13)
(172.5568439995598 -266.1031072343292 1.840296016214947e-13)
(175.2056705765912 -270.2986930228735 1.999126217166783e-13)
(174.902633486272 -273.2212318257718 1.888013617303e-13)
(178.9081353973192 -283.8336066317632 2.032607027959232e-13)
(170.3405861297957 -333.8658390606432 1.962966634392821e-13)
(95.86583439285108 -474.1551255891354 1.979673659746546e-13)
(3.79279400171031 -394.0603052688745 1.93928266665357e-13)
(15.22230395719718 -41.91083876204408 1.84532614170833e-13)
(19.70940780287776 27.6194444160323 1.734603148521951e-13)
(32.51534331125229 4.220394086577486 1.154910922282481e-13)
(211.9767459312543 -283.7246745677472 2.929635987147112e-14)
(250.7118419864466 -294.7868920115887 1.293502798183795e-13)
(279.7912560072818 -296.8640804413125 7.613791977635641e-14)
(294.8401375925802 -298.4229645573176 1.158470414961047e-13)
(302.1986098644977 -297.0417493407116 9.838278261882296e-14)
(311.5584582738819 -297.8188054760598 1.122539213820597e-13)
(317.7668551015631 -296.5669884273844 1.076680866617745e-13)
(324.9558019603497 -296.9129497047181 1.140627201005117e-13)
(330.2255387248369 -295.8960137265813 1.163230946463102e-13)
(335.3884857715428 -296.0123836612591 1.182554617571876e-13)
(339.6017667731136 -295.1985766893935 1.24177883300118e-13)
(367.8934022951496 -288.3933378618707 1.239706236357811e-13)
(478.6322228937863 -244.4217844618026 1.21740561081496e-13)
(273.914814954845 -114.2070798727022 1.082938652363379e-13)
(170.3171858657744 -266.5233366920751 1.675958523769766e-13)
(173.1872405390346 -269.8607892308094 1.956240063744584e-13)
(171.8907333317193 -267.1387306368011 1.791099396239435e-13)
(173.9207122557697 -269.3993786861653 1.954927166686247e-13)
(172.5353219881704 -266.2282053474737 1.836763717046928e-13)
(175.1360750875799 -270.1823710208042 1.998420835995228e-13)
(174.3908587736049 -269.0968584890286 1.886216578138687e-13)
(177.6721101069705 -277.5430551695061 2.036377679941338e-13)
(178.5215561623492 -283.0769150720511 1.940661000312946e-13)
(172.0106796075998 -334.2626587232307 2.039659705232677e-13)
(101.6902911855682 -470.1545822757807 1.997879058126208e-13)
(18.19435986217108 -401.3735476340213 1.955354981420926e-13)
(21.45578812648467 -51.32219427785554 1.85760013693887e-13)
(17.13040184561902 24.98766254594091 1.756130634256179e-13)
(42.700967081457 4.624947250257464 1.136612646702157e-13)
(171.344812895763 -261.369321879085 8.51936677554734e-14)
(214.494155087895 -285.5968805584149 1.350653622797868e-13)
(249.5158236019993 -293.4976102166603 7.435147342994156e-14)
(282.1516184166125 -298.9494790518634 1.185248157445267e-13)
(293.8299673275751 -297.580090236095 9.892059196359016e-14)
(303.6197135030776 -298.5054338568322 1.127759123265914e-13)
(310.8278987224169 -297.2100568291385 1.074775557812466e-13)
(318.8307146816542 -297.7793015893925 1.139605678784309e-13)
(324.5236466040325 -296.6136655121275 1.166571824264666e-13)
(331.0447491533607 -296.9526268964926 1.183243032960741e-13)
(335.189828943725 -295.9483511447352 1.245289693791311e-13)
(340.0288087675322 -296.0292140362611 1.251400512201296e-13)
(364.7566709365872 -289.8187216499143 1.28819636055079e-13)
(470.9704322870041 -251.3964945913746 1.254361943672281e-13)
(284.4253596608709 -132.9661482893557 1.115657314529565e-13)
(170.5225555872192 -268.6463353318524 1.660648354219073e-13)
(173.6157728584681 -271.8452238342675 1.962210911712554e-13)
(171.8302355663095 -267.4766121817341 1.756597318967692e-13)
(174.1971454572137 -270.8571418360962 1.958962026042977e-13)
(172.7806699204962 -267.5183224420438 1.829758224770846e-13)
(175.1954195048923 -270.5233244808447 1.999564789950412e-13)
(174.1470638650489 -268.5734579258173 1.887803033448484e-13)
(176.9736694566402 -273.0141851460571 2.033449672144171e-13)
(176.8357212622802 -276.1310737205837 1.940573389024348e-13)
(180.6603710241528 -286.4251058347996 2.069730110858893e-13)
(173.0305690769328 -332.4064935147924 2.020988622503848e-13)
(107.9095000811945 -465.8718896689862 2.024132056168616e-13)
(34.28521489112713 -408.2932060163272 1.97470437777879e-13)
(28.8324911825271 -63.25129819273125 1.871193342827169e-13)
(13.85793409306892 21.11793665400052 1.783580109622183e-13)
(53.80231448393025 3.070745954279873 1.129950569450962e-13)
(152.9790184467131 -239.6189762406875 9.474117643095558e-14)
(171.831237016499 -261.2780888838721 1.132788717868198e-13)
(213.3294547541064 -284.3952676613055 7.239370290434139e-14)
(251.0698090791796 -295.2311603083786 1.18387670830857e-13)
(280.9858810627925 -298.0232277451028 9.916269790929677e-14)
(295.2457821210076 -299.1066720953668 1.11876978294653e-13)
(302.8795829635541 -297.8602412356759 1.079209246343088e-13)
(311.9750982689689 -298.5226146135135 1.138150431861314e-13)
(318.3822089337914 -297.4507249356724 1.171050745331577e-13)
(325.3747047602782 -297.7145957127177 1.181997229026613e-13)
(330.8127072377565 -296.8738680672002 1.250772740869968e-13)
(335.7588145395155 -296.8589406504494 1.25169371050715e-13)
(339.7232301340472 -296.2630958807632 1.31380802268921e-13)
(361.7101422330238 -291.3579595854218 1.30824106301269e-13)
(462.7776961757756 -257.9392658378671 1.293245272287362e-13)
(295.9849210010007 -152.1764667928238 1.154404991970614e-13)
(170.3830588595525 -272.011886400054 1.561067273360208e-13)
(174.0194357420918 -274.2637911054568 1.929651394677291e-13)
(172.1216831725646 -269.3346252665967 1.739320105744025e-13)
(174.4637696071366 -271.8246814370071 1.979659351041321e-13)
(173.0151915248397 -268.9010595132074 1.823743917898267e-13)
(175.4770831610747 -271.9146242180805 2.0052730172774e-13)
(174.1009064569125 -268.6664708681695 1.88253697650993e-13)
(176.9398642875392 -272.9889566631705 2.03581241092788e-13)
(176.4149982731763 -272.1792763175839 1.94108145218647e-13)
(179.5548333970434 -280.3688474784548 2.072288057755711e-13)
(180.732649433412 -286.2872129216652 2.001190856073626e-13)
(174.6975618057157 -331.9435386815528 2.077007126723894e-13)
(114.5057774333086 -461.16329069166 2.04945936379239e-13)
(51.64221439296604 -416.7830916048945 1.996131675232042e-13)
(37.08096469778015 -79.81744427167001 1.890654328080145e-13)
(9.652097202304148 15.41671213996747 1.801853858524773e-13)
(64.20671039310696 -2.709772264695823 1.137403590981694e-13)
(147.292294321608 -228.8945706858048 1.65801687858798e-13)
(155.8477687307393 -244.035470104243 1.154751970911701e-13)
(170.6442396309673 -259.4274681287105 1.000164326786789e-13)
(214.8788912691151 -286.3572988649814 1.189693728220426e-13)
(249.9319438947719 -294.0638490424672 1.035155510461048e-13)
(282.6039157713651 -299.6527881098535 1.126809869641898e-13)
(294.4922377905209 -298.3802020057248 1.09258213677726e-13)
(304.1143341753568 -299.2299445251153 1.134220748261651e-13)
(311.4937901158778 -298.1420979750908 1.176513938842074e-13)
(319.2684968403029 -298.605539737892 1.18010224449952e-13)
(325.0918324569075 -297.5925376818685 1.255146316812086e-13)
(331.3527812501034 -297.8415111788109 1.251517419133023e-13)
(335.6202574382914 -296.9061302049563 1.318453636123337e-13)
(339.8595530098805 -296.9681613843945 1.314242781929103e-13)
(358.5977268238041 -292.7021439632143 1.351867190055338e-13)
(454.3720933751098 -264.3829420481295 1.32876642832346e-13)
(307.796643429683 -170.8266384248035 1.191956536811935e-13)
(171.6023846520634 -278.1373169496141 1.502818004278959e-13)
(174.5985326295645 -278.7368353976469 1.921490083972197e-13)
(172.3467116563846 -271.5557130571549 1.731520953815282e-13)
(174.7509883903736 -273.4895121390072 1.972951842466617e-13)
(173.076646329269 -269.436668484113 1.804126323180901e-13)
(175.721951335337 -273.3382133320603 2.010492329711203e-13)
(174.4752829082362 -270.1671292483569 1.882504632094472e-13)
(176.9153514062322 -273.316910097992 2.035494929955311e-13)
(176.1887818962687 -271.6674000715417 1.940266517286785e-13)
(178.9398700269038 -276.072213457499 2.071055838238886e-13)
(179.2576311205206 -279.7703238654442 2.002465887485034e-13)
(182.587490987204 -288.9434477308358 2.100729384772855e-13)
(176.2601160498681 -330.7423668838997 2.086650311693958e-13)
(121.3028639523845 -456.5217095241892 2.074016488037745e-13)
(68.44788374077683 -429.0777879514489 2.022149007050814e-13)
(45.76924367313369 -102.1551008149281 1.91384426609914e-13)
(4.225933270548953 6.744498027499696 1.832770452099835e-13)
(72.58019475189168 -13.53469080826926 1.151970867526393e-13)
(144.0414681268277 -222.0346098463502 1.510314758976793e-13)
(150.7732793586496 -234.7511402283986 8.097985019254241e-14)
(153.5616417972044 -240.443429651078 9.800147841763014e-14)
(172.4777255395017 -262.2411285526324 1.135803974839804e-13)
(213.657498898037 -284.8460826488566 1.120603182952969e-13)
(251.5184510492021 -296.0891191467269 1.11124992590588e-13)
(281.486551900654 -298.6947332562409 1.10049863272074e-13)
(295.7855335791253 -299.8356046981906 1.116718878926395e-13)
(303.5796198415614 -298.7776815965709 1.185298950400556e-13)
(312.4359212788864 -299.3572837530376 1.179310581162777e-13)
(318.9586497895086 -298.4409963500883 1.261642905505511e-13)
(325.6615311409344 -298.5916827045332 1.252764589510387e-13)
(331.1519618612481 -297.864261259919 1.32369207755942e-13)
(335.8962093186895 -297.6977044135853 1.314916949227476e-13)
(339.5180449554139 -297.317707066663 1.374736637539649e-13)
(355.697590866983 -294.036150443327 1.369754702560741e-13)
(445.6584367694858 -270.7055796548717 1.362868325140382e-13)
(319.8504924253965 -189.0300707868024 1.233925836398483e-13)
(171.6905944587257 -273.5445935890912 1.798549219523329e-13)
(175.2238012849939 -284.0124368138883 1.989064993187968e-13)
(172.9714287250657 -275.9629300632914 1.736033325267199e-13)
(175.1939272355924 -276.0723529043755 1.976338679379092e-13)
(173.4292416486069 -271.4202979769163 1.78899763926282e-13)
(175.9714954554767 -274.239674228138 2.021239915574998e-13)
(174.6739594858314 -271.4153158511104 1.879029268267818e-13)
(177.1705500014568 -274.650376126317 2.035303307635144e-13)
(176.2035411492777 -271.8613336686202 1.937495169055287e-13)
(178.8877422528176 -275.9740718517808 2.072155872301234e-13)
(178.9343923670615 -276.0081819474551 2.000222084205915e-13)
(181.3341516006262 -282.9406710026294 2.104925207244547e-13)
(183.3610976138578 -289.8743721210344 2.078680913743432e-13)
(177.7843527047134 -329.404899990702 2.109093384156222e-13)
(128.418384093121 -451.2862215929232 2.092640349311879e-13)
(81.87597588967418 -442.5137045438535 2.047481876117256e-13)
(52.48190053947276 -132.8479605993834 1.941103816098514e-13)
(0.22185846679808 -3.234023909997049 1.870403497961988e-13)
(79.71688916827719 -26.96181699921314 1.175009362087002e-13)
(141.0807788404193 -215.9653763618469 1.260119175221973e-13)
(147.2098836466166 -227.5742326300255 7.782635814774728e-14)
(148.1604188417181 -230.6128148974437 1.417965170419886e-13)
(156.5459646956232 -245.1147321921793 1.201939057474637e-13)
(170.8029171040662 -259.6841368984489 1.080196793444303e-13)
(215.6084324068235 -287.3661610812798 1.094428003041683e-13)
(250.5049536203863 -294.8427185577818 1.143740294034928e-13)
(283.0883492595431 -300.4251809384329 1.098940334394608e-13)
(295.1980650614241 -299.3001303849891 1.199273343338482e-13)
(304.6513031300347 -300.0712355911458 1.174636885993078e-13)
(312.1022654264702 -299.1551710784441 1.270371957358382e-13)
(319.5725218628111 -299.4684828848273 1.253827985051961e-13)
(325.4344303012789 -298.5864718449769 1.327934739325013e-13)
(331.3384827243957 -298.687251539896 1.31501373342627e-13)
(335.7417754921921 -297.8834485802373 1.380053501145908e-13)
(339.3722491397656 -297.9354253274263 1.375402182340004e-13)
(352.8726966281167 -295.2338878079453 1.411603659319172e-13)
(435.962836487683 -276.4345668095292 1.395891925303032e-13)
(330.785673686673 -206.3855796548579 1.276166979334222e-13)
(170.983339158098 -264.7675623143919 1.709843303330442e-13)
(174.9088032694006 -279.0389209932928 2.043717196022997e-13)
(173.97897618664 -281.9924262761026 1.855116666383561e-13)
(175.7946268740156 -280.578649760581 1.96293484827232e-13)
(173.8943259969365 -274.0277590386701 1.782329995335098e-13)
(176.2719570512062 -275.9578372080321 2.01806193903348e-13)
(174.8242341062089 -272.1523189983116 1.879783508994722e-13)
(177.3982567196729 -276.0128951017938 2.032751194531048e-13)
(176.5510992813427 -273.352058607368 1.938659887895427e-13)
(178.7777931633444 -276.2964320294066 2.071471672520033e-13)
(178.7240758465028 -275.5417931072952 1.999134456559926e-13)
(180.8219746646106 -278.8838851609059 2.105719725017187e-13)
(182.0378996442449 -283.9670642699751 2.080339323488328e-13)
(184.310628461119 -291.1283453812056 2.11378012545745e-13)
(179.3756834254425 -327.7492872482255 2.10831294755046e-13)
(135.9314879281441 -445.6113526560089 2.104152321036529e-13)
(92.61655623879528 -455.1456662132828 2.071470803220115e-13)
(58.8628215496142 -169.152321847421 1.974268966039194e-13)
(-1.987917445036409 -12.88302531691038 1.90937184833697e-13)
(87.99585044844336 -41.77135949633529 1.201161023362281e-13)
(138.9211524291202 -210.0528306888093 1.285327875017688e-13)
(143.7868892697193 -220.5308979952599 7.046849191641496e-14)
(145.1492975241641 -224.2778785409025 1.420396012620874e-13)
(151.4429391033906 -235.7275185950807 8.567389224220758e-14)
(154.2345763822498 -241.4510122692903 1.044044661922199e-13)
(173.3741788441406 -263.610832971211 1.059378008622532e-13)
(214.0009953907426 -285.3907960493038 1.147919414130321e-13)
(252.2341663813529 -296.9783830000189 1.053259404537736e-13)
(282.1532632316373 -299.6564396170035 1.220400702306363e-13)
(296.3517052490565 -300.6789719524286 1.17301648269209e-13)
(304.2716809308049 -299.7951328218068 1.283060198729014e-13)
(312.7683125745478 -300.2325553641111 1.2525952075455e-13)
(319.3079809853733 -299.4182535963784 1.333117516976466e-13)
(325.6486255468632 -299.4517744931098 1.31557136567837e-13)
(331.0505574604524 -298.8447925157975 1.383942678172313e-13)
(335.745630614924 -298.5350392790148 1.375750328185336e-13)
(338.9597491956525 -298.4003739519298 1.432644282863184e-13)
(350.2982846582258 -296.3333298850645 1.432352780039256e-13)
(425.6113630566484 -281.2171380515412 1.427082166542268e-13)
(339.1128421637266 -223.066378226199 1.319115779072704e-13)
(169.2684221249067 -258.4132741310235 1.515162791303669e-13)
(172.712118091716 -268.6330414821236 1.995180703270382e-13)
(173.9057634615684 -277.0652782771067 1.70571664936125e-13)
(176.2591538191791 -285.6859672955252 1.868322544422024e-13)
(174.5709919298029 -278.5770068095423 1.769239388573075e-13)
(176.7102199385072 -278.4923473435865 2.027675462853785e-13)
(175.2680070403323 -274.3061194310915 1.893701011257232e-13)
(177.6335108471568 -276.8851245427942 2.033815181915524e-13)
(176.7377463385933 -274.5773808708515 1.931674193967814e-13)
(179.0147787823526 -277.6300741464639 2.074309984180052e-13)
(178.8477027984308 -275.8456821726809 1.998522920898328e-13)
(180.826777290908 -278.8376764749178 2.104212515434907e-13)
(181.6103475429151 -280.0780529051211 2.080649475000106e-13)
(183.1101486867133 -285.4764473383883 2.11460310057368e-13)
(185.1082441372117 -292.1157738227244 2.101360374272415e-13)
(181.1518075966712 -326.6973237810719 2.115548077076094e-13)
(143.2206852669131 -438.1333303785964 2.113591064873557e-13)
(102.4122371819947 -463.3546808653708 2.092725086011827e-13)
(66.54061548637944 -205.3213014357035 2.006314791860845e-13)
(-2.009699815619177 -24.74512529314412 1.938931406470326e-13)
(98.06115069248409 -58.07650358605602 1.229318044253535e-13)
(136.7619281996034 -204.1594240430656 1.09317102296253e-13)
(141.0103612983187 -214.0060548579526 8.386755649838523e-14)
(142.244747983598 -218.1045118081426 1.472188435007916e-13)
(147.9308107167349 -228.6081435250293 7.65495044505558e-14)
(149.0044959687284 -231.9299800430856 1.339489357382353e-13)
(157.4681231823634 -246.5184045677892 1.081154914631061e-13)
(171.3745038089955 -260.5361776352023 1.308537586385255e-13)
(216.2621826147843 -288.5677360802175 1.100379059603398e-13)
(251.1412705092529 -295.8374256473192 1.278738057767997e-13)
(283.5985562053145 -301.2749209893585 1.162594180679791e-13)
(295.9071431620843 -300.3216905514626 1.294531191258753e-13)
(305.0649877725781 -300.9281711397357 1.251613538153403e-13)
(312.4877173339718 -300.1427978134453 1.338668559536237e-13)
(319.5536153713937 -300.3063817658428 1.315690842060422e-13)
(325.3622203123837 -299.5911553929595 1.38855390967545e-13)
(330.9449188323235 -299.4867800264587 1.376124144385347e-13)
(335.4547666717993 -298.8695494075897 1.438546478556129e-13)
(338.532907226734 -298.9565113200051 1.438621013224275e-13)
(347.7900101238157 -297.260738963176 1.466689936992343e-13)
(415.2989675746181 -285.2562686045652 1.459405922724528e-13)
(343.2169568778506 -237.5953944547106 1.360165532177926e-13)
(168.5432473203751 -264.1249315057364 1.741546144366903e-13)
(171.957800040923 -263.3113790616646 2.041234120983331e-13)
(171.8595092641978 -267.1151587340427 1.726934532064764e-13)
(175.9853852153257 -280.6040989459384 2.021050290612516e-13)
(175.2955602878804 -284.1216339454905 1.874269463486369e-13)
(177.1808016665789 -282.7962897902414 2.025574875836814e-13)
(175.5935543216215 -276.724483480118 1.905343838031801e-13)
(177.9489983840182 -278.6762314323681 2.032528385182826e-13)
(176.9122473252347 -275.4127254781487 1.928757018387135e-13)
(179.2114949874139 -278.8803193549629 2.073227168419487e-13)
(179.1566988877037 -277.2476411557504 1.996588555574961e-13)
(180.8240814535476 -279.0855391189096 2.103500845603902e-13)
(181.639195880129 -280.0753674367153 2.081797625716581e-13)
(182.6869728746489 -281.7064343460846 2.11325775447845e-13)
(183.8597064076458 -286.5120535171351 2.100709412429801e-13)
(186.1966586499831 -293.5899575417336 2.117338675444848e-13)
(182.5824198034043 -324.5643767007049 2.121871159789522e-13)
(149.7834452674103 -428.6328886147583 2.113805094355788e-13)