/*--------------------------------*- C++ -*----------------------------------*\
| =========                 |                                                 |
| \\      /  F ield         | OpenFOAM: The Open Source CFD Toolbox           |
|  \\    /   O peration     | Version:  v1912                                 |
|   \\  /    A nd           | Website:  www.openfoam.com                      |
|    \\/     M anipulation  |                                                 |
\*---------------------------------------------------------------------------*/
FoamFile
{
    version     2.0;
    format      ascii;
    class       volScalarField;
    location    "4000";
    object      alphat;
}
// * * * * * * * * * * * * * * * * * * * * * * * * * * * * * * * * * * * * * //

dimensions      [1 -1 -1 0 0 0 0];


internalField   nonuniform List<scalar> 
18230
(
1.176761447402989e-08
1.827754454276873e-08
4.815382258290141e-08
1.291851099948948e-06
4.784159440634469e-11
5.521806605393669e-08
1.409186748415106e-08
1.311408488162011e-06
1.746030865729118e-06
4.207629927834057e-10
9.138719864585519e-09
1.478117906017331e-07
2.814515190077227e-10
1.140862416318267e-07
2.751539779346121e-06
2.136793504479872e-06
7.196903115579018e-10
3.791567826049115e-07
5.178870661523162e-08
2.834109622883197e-07
8.55497683190082e-10
6.983191344602049e-08
2.257314255157903e-07
4.005041420534159e-06
2.97707145681173e-06
6.856180247100361e-10
2.737553320872509e-07
3.772310518388039e-07
5.664548554177498e-08
3.93565724709557e-07
3.067274079559845e-09
5.619657336737581e-07
1.408353053932355e-07
3.102677081244811e-07
4.173624263138379e-06
3.905295151350058e-06
9.156400345568515e-10
4.240959812922519e-07
8.039068816331546e-07
6.953137758153638e-07
6.959115668353056e-08
4.838931151489814e-07
6.877065638304701e-09
1.136318057495088e-06
1.211252531161408e-06
1.860003518635572e-07
4.161183446483649e-07
3.685364663581176e-06
5.143903163551059e-06
9.419217736082963e-10
4.73229528668301e-07
8.282628777500784e-07
8.915717235556495e-07
5.520595575859999e-07
8.31052733911744e-08
5.686385609963895e-07
7.426398712262026e-09
1.707429270327373e-06
3.579279084963897e-06
1.536540260706076e-06
2.381581675146909e-07
5.228264803034637e-07
4.806225028620787e-06
5.634640123211094e-06
8.258640180561628e-10
4.91730178468445e-07
8.646934634506376e-07
8.139754149886604e-07
1.758076038864927e-06
7.48564521502546e-07
9.686028453674464e-08
6.628566898600138e-07
8.89291512923858e-09
2.347847979849252e-06
5.372308951628103e-06
5.804283979727738e-06
1.571225478987244e-06
3.094745802431245e-07
6.694559502650026e-07
5.737953809804476e-06
6.035466374861593e-06
8.612595173711944e-10
4.789556651664289e-07
8.770659066102745e-07
8.648761808915768e-07
1.862119455099569e-06
2.559116591481381e-06
6.99874598966933e-07
1.217171743528371e-07
7.711925970369272e-07
8.075783970195822e-09
2.620101486663446e-06
5.464981731484681e-06
8.783514976658904e-06
7.274700914489852e-06
1.938464026836033e-06
3.832718779645037e-07
8.519396771730343e-07
6.430813073563461e-06
5.575846457051512e-06
8.731778933341016e-10
4.625748028542998e-07
9.078006295539982e-07
8.625542377446147e-07
2.009208827340895e-06
1.764069405619701e-06
3.887456951028857e-06
8.524329813856436e-07
1.526443049163544e-07
8.907883559284641e-07
7.957429351521339e-09
2.569390085936159e-06
5.70012393321101e-06
9.128312780230984e-06
1.290848545049524e-05
8.248108987842695e-06
2.270740631258143e-06
4.710468514362115e-07
1.104316156856137e-06
6.188875130088237e-06
5.255581729158992e-06
8.422783693943094e-10
4.663149836567022e-07
9.501980788560003e-07
8.395717037045854e-07
2.115017015509247e-06
1.852795752292593e-06
4.05560448552274e-06
5.367307985140515e-06
9.188815354668002e-07
1.877600239558318e-07
1.028025333676977e-06
8.784668202932732e-09
2.475580961202703e-06
5.637277695850675e-06
9.349082580200434e-06
1.344297102505569e-05
1.781708106388614e-05
9.76865085452207e-06
3.25149655661766e-06
5.96198449505277e-07
1.421076297801416e-06
6.456785289512032e-06
5.746608817380423e-06
7.871429819893861e-10
4.603531066951422e-07
1.019595878785218e-06
9.901701994798957e-07
2.225845868967425e-06
1.942524541583708e-06
4.29853559160976e-06
4.322756726831888e-06
7.19754216802623e-06
1.092294273744813e-06
2.381841675919762e-07
1.187049121920145e-06
8.591485120411427e-09
2.533647487552503e-06
5.506668538116792e-06
9.286190244808522e-06
1.368850983170194e-05
1.849282011758335e-05
2.354332379268733e-05
1.089656728218661e-05
3.953592881239734e-06
7.517545879990978e-07
1.802149913038317e-06
7.540926722037123e-06
6.677262605045845e-06
9.315395497484938e-10
4.561628087392234e-07
1.112100904961653e-06
1.058850158932688e-06
2.400494280067864e-06
2.086974866260368e-06
4.501153611447035e-06
4.388907486183411e-06
7.276429528671624e-06
9.141798563013314e-06
1.191080804692362e-06
3.056390815533697e-07
1.386912161259737e-06
7.941818983259181e-09
2.543319937773014e-06
5.591903300947711e-06
9.150417048908947e-06
1.368803132412895e-05
1.888260726217003e-05
2.443376310696554e-05
3.007190441667239e-05
1.228545893105931e-05
4.800717558588627e-06
9.284069629820296e-07
2.282408958935624e-06
8.947221259289462e-06
5.946280629313433e-06
1.160905542054859e-09
6.731970952712946e-07
1.32072450813722e-06
1.170052596640038e-06
2.605511695433714e-06
2.309110627610511e-06
4.724136393686251e-06
4.504906704303658e-06
7.622159644359125e-06
9.170307762420072e-06
1.13196019457172e-05
1.431136770556452e-06
3.972974073132994e-07
1.640973928223623e-06
8.737263432227261e-09
2.451209151539764e-06
5.524032763883116e-06
9.243994168382783e-06
1.359173370362527e-05
1.892935548263543e-05
2.497176698778172e-05
3.132668147009872e-05
3.747865573385594e-05
1.380787138465205e-05
6.019815354005379e-06
1.130742248480468e-06
2.90029095382558e-06
9.291298899695288e-06
5.364919271836383e-06
1.853708981005995e-09
8.391904544957214e-07
1.809210117176298e-06
1.258661285700671e-06
2.871190188497949e-06
2.345206170063498e-06
5.017531009779211e-06
4.834158177955539e-06
7.911118602394933e-06
9.568665235732662e-06
1.124447859480165e-05
1.383602993246563e-05
1.693333773322483e-06
5.229153829175942e-07
1.9680106767273e-06
8.343288070426093e-09
2.607775995714186e-06
5.381652546967791e-06
9.111111227511979e-06
1.365382415755268e-05
1.886195414607106e-05
2.5059860089758e-05
3.195749855678285e-05
3.902472527065781e-05
4.57945739326159e-05
1.586694211809829e-05
7.001278177645602e-06
1.434034781727683e-06
3.703164279651127e-06
9.749361576275454e-06
5.084393187133543e-06
2.897096470842261e-09
1.334153994172356e-06
2.278880876674011e-06
2.8365626795356e-06
3.296538793580914e-06
2.521830596086273e-06
5.35617574922321e-06
4.779622935430144e-06
8.296146303577431e-06
9.908468247255798e-06
1.173688232873372e-05
1.372831993224429e-05
1.646409537479228e-05
2.060266197349549e-06
6.988909749119721e-07
2.403953516844265e-06
8.141780252319316e-09
2.592029535422189e-06
5.490469178329268e-06
8.923029961094994e-06
1.351717201263892e-05
1.886832327592262e-05
2.49697469597864e-05
3.203999353630067e-05
3.983735419692716e-05
4.7569504074164e-05
5.479527380121565e-05
1.802297163605663e-05
8.516534993544575e-06
1.89012932511987e-06
4.790027177270996e-06
1.062157309591854e-05
5.225260007918679e-06
2.904899231181342e-09
1.670991384543856e-06
2.926482313546383e-06
3.723934616200938e-06
4.234682330987578e-06
3.113450433637052e-06
5.748575536174628e-06
5.22509454768144e-06
8.697185147857105e-06
1.036735884343474e-05
1.213526469872798e-05
1.432887307569869e-05
1.664754016182549e-05
1.960639025499091e-05
2.498384518360798e-06
9.395252081028189e-07
2.974301446176083e-06
8.066473166403783e-09
2.47359108025597e-06
5.486886724315044e-06
9.027324136489144e-06
1.32588767161745e-05
1.872986115051166e-05
2.492221861065263e-05
3.193197928102354e-05
3.990976468665576e-05
4.85583696400726e-05
5.690534912792442e-05
6.440285340119351e-05
2.067941969194834e-05
1.054798727828701e-05
2.494269359169519e-06
6.413394341153825e-06
1.199247906490516e-05
5.73545893508897e-06
3.161215294610666e-09
1.596248945299177e-06
3.2346574376513e-06
4.720488757888403e-06
5.434336713421975e-06
3.878070940143146e-06
6.428512090735314e-06
5.673145280460622e-06
9.188399711831195e-06
1.084898150453622e-05
1.267920892085333e-05
1.482293905953247e-05
1.737054215719854e-05
2.026092680108388e-05
2.146738259005443e-05
3.045187102409955e-06
1.278660742103759e-06
3.728874262882699e-06
7.741228172789584e-09
2.556788993666084e-06
5.286037053507105e-06
8.927017892541404e-06
1.332021407676519e-05
1.837163787807521e-05
2.473971206782125e-05
3.185510608798302e-05
3.98087116216674e-05
4.869128686240691e-05
5.803469622900302e-05
6.675819595103066e-05
7.418281844243634e-05
2.374817103066629e-05
1.261449387553708e-05
3.443297692418557e-06
8.695094269435588e-06
1.408703591627654e-05
6.3983100061775e-06
3.542933023747741e-09
1.615127161650646e-06
3.146179743563153e-06
5.077788601694495e-06
6.767417232134177e-06
7.423095195315944e-06
7.881068971935489e-06
6.210080435577266e-06
9.714620698731071e-06
1.128563076230944e-05
1.327097688674545e-05
1.547757772948509e-05
1.798012531759e-05
2.111394252888076e-05
2.470130250585762e-05
2.613035317401693e-05
3.72457689598896e-06
1.753340482667114e-06
4.659126180800497e-06
8.769451668573268e-09
2.517483580776492e-06
5.365603200554301e-06
8.714130452986355e-06
1.321889220427643e-05
1.839061753418377e-05
2.440780748115424e-05
3.160449018653742e-05
3.969903285343378e-05
4.849834740997061e-05
5.660255293617274e-05
6.796947094587975e-05
7.619314629425219e-05
8.419253786654167e-05
2.6290487424468e-05
1.491369721497442e-05
4.689249030778747e-06
1.201314507659348e-05
1.675489844083137e-05
7.354611451373207e-06
4.205897270539e-09
1.731502488075766e-06
3.322789434716924e-06
4.547500852323908e-06
7.129920117149547e-06
9.084281041506043e-06
9.658438241286416e-06
8.501419395697106e-06
1.063469199854673e-05
1.192130096056017e-05
1.395548648309611e-05
1.618678175290248e-05
1.876249586441884e-05
2.187342270499391e-05
2.569145125305569e-05
3.029726163085567e-05
2.881599121324976e-05
4.560496193054622e-06
2.403468709099849e-06
6.034620701036471e-06
1.037932612606759e-08
2.688603376759215e-06
5.435241581600228e-06
8.83671853374564e-06
1.287116234156992e-05
1.831216401554083e-05
2.436611326826354e-05
3.121629271150748e-05
3.932394111999767e-05
4.834302248424216e-05
5.720620129259854e-05
6.827080149696935e-05
7.394739997881694e-05
8.7258234617628e-05
9.385222265080941e-05
3.06549424386937e-05
1.666226578796997e-05
6.18861026816975e-06
1.693740570051747e-05
2.002865989995816e-05
8.68051202893528e-06
5.215696643185034e-09
1.902994222382081e-06
3.546869839232186e-06
4.689678621002479e-06
7.260060400855229e-06
7.567886042793636e-06
1.176691580569525e-05
1.084505813470264e-05
1.267418509510269e-05
1.284229780076024e-05
1.474492154534256e-05
1.701579218463202e-05
1.963799667241912e-05
2.282648514758473e-05
2.665615487584144e-05
3.147554346656663e-05
3.726951089931608e-05
3.33938682491109e-05
5.583925480668753e-06
3.252835282035546e-06
8.068377105602531e-06
1.05778066310092e-08
2.894400641843269e-06
5.852222786725595e-06
9.006803432701231e-06
1.294984803984877e-05
1.78053572020979e-05
2.412602888766349e-05
3.114194656333878e-05
3.88984512953898e-05
4.78615044124769e-05
5.641409564812185e-05
6.806434391109474e-05
7.403682638370168e-05
8.233852340798545e-05
9.719844797497385e-05
0.0001021293287669722
3.268682082283358e-05
1.799356507172127e-05
8.379022054268021e-06
2.334761121437205e-05
2.398185372022878e-05
1.049115501600005e-05
4.329593263621253e-09
2.624754520651296e-06
3.907635765685742e-06
5.522386712650359e-06
7.860011276888805e-06
6.8117026498345e-06
1.28664104387584e-05
1.232361566975522e-05
1.550951790099075e-05
1.42296976865008e-05
1.61423874069371e-05
1.800901559885914e-05
2.064244442576756e-05
2.39084497704636e-05
2.781693265299092e-05
3.269165590632813e-05
3.870783343289243e-05
4.603585574124386e-05
3.795191071198361e-05
6.908845124846094e-06
4.460581172931586e-06
1.124510287635071e-05
9.761634470501506e-09
2.838025771064816e-06
6.071074927482513e-06
9.575909935212418e-06
1.324996405056466e-05
1.776435064917806e-05
2.35283932791589e-05
3.0803189001957e-05
3.874360135379576e-05
4.735006825156954e-05
5.71659731966697e-05
6.774816119576666e-05
7.282929746352688e-05
7.881708383933088e-05
9.902011542933711e-05
9.755298571281911e-05
0.000111968062580028
3.798048300991309e-05
1.885442383863022e-05
1.122489954990177e-05
3.160784949826609e-05
2.903777239398394e-05
1.292569071833588e-05
5.450557273931361e-09
2.046391301687428e-06
4.477402689492068e-06
6.292056504334359e-06
8.389651150656708e-06
8.139163440440892e-06
1.339838176252314e-05
1.227118978129302e-05
1.898825534919749e-05
1.721620570286855e-05
1.93359694710001e-05
1.973809119587883e-05
2.18506689447234e-05
2.515775851504633e-05
2.913321148238082e-05
3.412144610454653e-05
4.024135311854791e-05
4.576236347036227e-05
5.418661275891395e-05
4.452832067226316e-05
8.675530318406806e-06
6.246775603446419e-06
1.469053950572429e-05
9.08679910682752e-09
2.571680344624639e-06
5.71447220213734e-06
9.742488823209941e-06
1.393522216710088e-05
1.821655873965133e-05
2.333991271202514e-05
3.009552221851206e-05
3.825632834861571e-05
4.705709049824654e-05
5.65121018857739e-05
6.530057032041e-05
7.654631133229436e-05
7.701340254086275e-05
9.938950273046126e-05
9.265706694225638e-05
0.0001158094575333255
0.0001129809681660293
3.954483501033249e-05
1.919504517118494e-05
1.416608130954835e-05
4.190551556092171e-05
3.497109230831147e-05
1.600668269680955e-05
4.511663325291475e-09
2.708049102897532e-06
4.038467471384041e-06
6.709493549290995e-06
8.980463533445109e-06
9.211938023349261e-06
1.43126516277535e-05
1.223076864976777e-05
2.096329929381083e-05
1.877748420958998e-05
2.381043478906051e-05
2.36671990723709e-05
2.394246785461808e-05
2.66444172869439e-05
3.068954651751122e-05
3.574598748641775e-05
4.200456377101825e-05
4.842158305100258e-05
4.717163062274064e-05
5.256787330422109e-05
5.001151120058408e-05
1.093197178622207e-05
8.96962998637258e-06
1.327392637549222e-05
9.976397440132774e-09
2.504900548228087e-06
5.048513173651671e-06
9.017830458984654e-06
1.400977516944741e-05
1.897015129904325e-05
2.385681227970415e-05
2.96504788993887e-05
3.732272136942407e-05
4.610859964692703e-05
5.597536336588344e-05
6.123279317642913e-05
7.71243364956734e-05
7.3488071790537e-05
9.904045337878494e-05
9.242817723684802e-05
0.0001178726181760614
0.0001056835285214294
0.000126781332259328
3.998830358558131e-05
1.886692614542882e-05
1.673741359541257e-05
5.610032646301698e-05
4.155157027491449e-05
1.975686904352934e-05
4.639591453453226e-09
1.864105260359177e-06
4.526097063164411e-06
6.348762067218653e-06
9.273118090799073e-06
1.090194949068323e-05
1.525732125983338e-05
1.258697162527937e-05
2.209040469334139e-05
1.847486440544369e-05
2.939439436649479e-05
2.882023629665814e-05
2.885560688777694e-05
2.926134286458473e-05
3.249130382883472e-05
3.768061395955119e-05
4.400815344306988e-05
5.194685005172508e-05
5.160822947263193e-05
4.706328921308568e-05
5.080412347259698e-05
5.353359521376235e-05
1.379165584264976e-05
1.286947570251129e-05
1.155931815271166e-05
1.11243757556798e-08
2.64662582258924e-06
4.935322825485405e-06
8.019890650175926e-06
1.289151042870587e-05
1.883406270190957e-05
2.460810458417364e-05
3.012949096052944e-05
3.656050159395153e-05
4.348483181511612e-05
5.521795124210593e-05
5.720004610862642e-05
7.645867531048903e-05
7.427963699036871e-05
9.810608369222791e-05
8.816664388017933e-05
0.0001182666535285207
0.0001032069863297515
0.0001267190820804245
0.000124010202967017
3.641962017369746e-05
1.743035977302485e-05
1.843155347252317e-05
7.22627031319959e-05
4.821909408246353e-05
2.442573264415856e-05
4.966968729881513e-09
1.86661289312084e-06
3.705327672098239e-06
6.061169200573314e-06
8.980924266472203e-06
1.053191965674942e-05
1.582062704727241e-05
1.420435214047861e-05
2.346779036509716e-05
1.886989079043327e-05
3.277921078354459e-05
2.817264092749403e-05
3.59385492725443e-05
3.531439375932151e-05
3.571167512481423e-05
3.995349515130472e-05
4.633796849807093e-05
5.44449553569826e-05
5.695586455236487e-05
5.192434061710256e-05
4.711059648441197e-05
4.849754126511845e-05
5.450104202641474e-05
1.716651749196079e-05
1.819832501537025e-05
1.078300639936704e-05
1.0649864821299e-08
2.771314434258116e-06
5.177139640335252e-06
7.803994257423125e-06
1.141951696749121e-05
1.720491311214669e-05
2.412325829064195e-05
3.073147029112753e-05
3.68464422515603e-05
4.374651484819861e-05
5.369688018861275e-05
5.71716895062802e-05
7.576389970127149e-05
7.262141591884579e-05
9.734622552257956e-05
8.363485357927213e-05
0.0001178803322233617
9.866633879146768e-05
0.0001195484621656905
0.0001193446997086384
0.000121333964260083
3.181526111931595e-05
1.53166618300736e-05
1.864813841081088e-05
8.967337454766231e-05
5.570680131886959e-05
2.993126430204475e-05
5.429093475086428e-09
1.907983855836951e-06
3.769164118964844e-06
5.655058841156508e-06
9.227548333268798e-06
9.935312535068e-06
1.598243368540278e-05
1.551516606840014e-05
2.461826720844381e-05
2.050517469139578e-05
3.452165918459213e-05
2.910590007467776e-05
4.485161046309651e-05
4.411185117484381e-05
4.325671208847137e-05
4.394547119659976e-05
4.919745159666093e-05
5.728200494240753e-05
6.643271196548891e-05
5.756757162670279e-05
5.281662851207205e-05
4.758126311867711e-05
4.719298349467999e-05
5.477964859148792e-05
2.103382010801469e-05
2.423411190303825e-05
1.112899748721508e-05
6.347645979111276e-09
2.411256662593736e-06
5.316571473005755e-06
8.03152278216558e-06
1.098476157607178e-05
1.487458726108942e-05
2.191586755315372e-05
2.982607250674423e-05
3.722298887575173e-05
4.369904136537636e-05
5.174402862830068e-05
5.546579771069148e-05
7.439622465621396e-05
7.319319382660661e-05
9.629475497374823e-05
8.224624301113201e-05
0.0001160891136235784
9.618812368036672e-05
0.0001123528875319108
0.0001131730495565723
0.000132265432486019
0.0001097714987918396
2.718663120130538e-05
1.332241400095167e-05
1.847884444992236e-05
0.0001093545623098291
6.378975985359023e-05
3.594305563994792e-05
5.593117300720465e-09
2.015353478209321e-06
3.840887939455716e-06
5.503306994946908e-06
8.579770677422912e-06
9.645632233832265e-06
1.586974050823037e-05
1.506396215375552e-05
2.511943418728399e-05
2.261035398954648e-05
3.623150471335915e-05
2.966485969053554e-05
5.005609273008377e-05
4.383425618687942e-05
5.424139700876915e-05
5.321565543019437e-05
5.409454632319883e-05
6.083586376078561e-05
7.073744717943352e-05
6.748273662874859e-05
5.908240363137592e-05
5.371030776214618e-05
4.882512050012453e-05
4.688125564547687e-05
5.427518482664891e-05
2.512824137096001e-05
2.862676435555582e-05
1.250173482076254e-05
3.053470694002378e-09
1.449311340381511e-06
4.391196015872313e-06
7.958904215238153e-06
1.118386969790917e-05
1.434559120141947e-05
1.944346916265699e-05
2.619567598948614e-05
3.584870128102337e-05
4.404061415819434e-05
5.137347040640718e-05
5.508343452678667e-05
7.16172459082304e-05
7.234491227840726e-05
9.497288860649928e-05
8.037059949535015e-05
0.0001138410535959211
9.512969788252009e-05
0.0001087100834814889
0.0001064857996984171
0.0001238449147283468
0.0001382561021760992
9.413575485908901e-05
2.43232726627054e-05
1.194676807029795e-05
1.846490502069954e-05
0.0001371243976682951
7.170058170252036e-05
4.302525627512412e-05
5.782885169966916e-09
2.038795500895847e-06
3.934345822924253e-06
5.563902328760211e-06
8.815655468242525e-06
9.037121682801654e-06
1.590047118194344e-05
1.483853839222383e-05
2.538360071785196e-05
2.30224469019857e-05
3.7433997687524e-05
3.23843669767631e-05
5.247390406219598e-05
4.558287067883834e-05
6.807777220722409e-05
6.676437483069619e-05
6.558961857198706e-05
6.695149826179988e-05
7.510809024982114e-05
8.063298597273335e-05
6.97098352888603e-05
6.033829835408133e-05
5.531628687415872e-05
5.112511972193975e-05
4.819858214294108e-05
5.420860806618605e-05
2.937565485687584e-05
2.997436681257583e-05
1.505442372718594e-05
1.358655355305146e-09
8.72190453917651e-07
2.635786151765113e-06
5.587624256494344e-06
1.073441401910198e-05
1.456651372242064e-05
1.828622403929144e-05
2.103354621154756e-05
3.085710193350587e-05
4.203894088814273e-05
5.093665049119351e-05
5.45932284079195e-05
6.795966768358947e-05
6.842892233100794e-05
9.284586264299139e-05
7.993743999007946e-05
0.0001130817826548044
9.489433542604244e-05
0.0001055741907857119
0.0001029232524249714
0.0001142143914408357
0.0001280219917027838
0.0001591653918872851
8.256923758067023e-05
2.42408478553966e-05
1.170947390090374e-05
1.922136538640587e-05
0.0001677054522544103
8.238312849046641e-05
4.23760308895597e-05
5.96506686898625e-09
2.058366033564148e-06
3.934161846666958e-06
5.827323558961966e-06
9.057995034098672e-06
9.1749288939248e-06
1.567310702073091e-05
1.48712768815154e-05
2.551783290759796e-05
2.345700416236472e-05
3.823336048000373e-05
3.371198872286506e-05
5.45050293302772e-05
4.760484707028406e-05
7.553619185514722e-05
7.112361696272799e-05
8.23990571236918e-05
8.117020890425869e-05
7.853596758333753e-05
8.580616206764041e-05
8.179830290777905e-05
7.070554056087725e-05
6.233975056359972e-05
5.784767542474671e-05
5.471270236556562e-05
5.149668549679889e-05
5.595752641429432e-05
3.441421256937071e-05
3.0519181498388e-05
1.448327360975796e-05
1.253669990557392e-09
5.840922091388342e-07
1.755583829510612e-06
2.139782363188973e-06
8.318981697162698e-06
1.288616943166794e-05
1.795699347285038e-05
1.973265730208695e-05
2.868312879616589e-05
3.217897417424953e-05
4.616394602878024e-05
5.438819667274136e-05
6.628308759947076e-05
6.651366736297751e-05
8.87991002757159e-05
7.760052751197369e-05
0.0001083547196671674
9.42909378517389e-05
0.0001045035145906413
0.000101761525826486
0.0001103517242444264
0.000115756477691875
0.0001624247761427119
0.0002060717258840513
8.071876167997915e-05
2.649062343776904e-05
1.277557320860441e-05
2.169446688337145e-05
0.000196687389325647
7.365784816133421e-05
5.263002800316465e-05
8.240238010792458e-05
6.085481917861079e-09
2.077905502873855e-06
3.998229066915014e-06
5.782098872163875e-06
9.192299254095426e-06
9.770215229983649e-06
1.604962548306936e-05
1.450329154902488e-05
2.554207712329144e-05
2.382118371977724e-05
3.865241904037778e-05
3.524540546050896e-05
5.602642565073369e-05
5.009867761515608e-05
7.883987771441669e-05
7.307352823488751e-05
0.0001032777927000891
0.0001018901554961629
0.0001002561720279191
8.06196409390349e-05
8.41250915097252e-05
8.046208808572483e-05
7.19025842248907e-05
6.514599007794353e-05
6.135498243255655e-05
5.907363187359041e-05
5.620860219186837e-05
6.130805391733735e-05
3.849392349758426e-05
3.190247765291767e-05
1.346836829383225e-05
1.440613529379397e-09
7.082995040560873e-07
1.426552373946732e-06
1.329869348995492e-06
4.587239187593947e-06
8.801551198178596e-06
1.528975619705024e-05
1.961656835548322e-05
2.622237793747562e-05
2.792742083136478e-05
3.679397130396967e-05
5.153882102273227e-05
5.820518809531575e-05
6.420785152620192e-05
8.341570636904624e-05
7.613685596255405e-05
0.000105730574042242
9.189531425301505e-05
0.0001022878316652676
0.0001010327494301371
0.0001081449453019023
0.0001128917985739081
0.0001508477311665662
0.0002110918578601045
0.0002305160752912641
8.64366374852797e-05
3.102153591008108e-05
1.528005186980932e-05
2.987025083824534e-05
0.0002053795112965427
0.0001500612729955546
4.591856043847066e-05
0.0001177698893508387
6.022133572081563e-09
2.090123071900269e-06
4.084092549986042e-06
5.749962824038309e-06
9.241025418810532e-06
1.009657124324668e-05
1.633421396370648e-05
1.474476667710445e-05
2.571426710046405e-05
2.364792170783322e-05
3.910955580305357e-05
3.552174385328163e-05
5.71667316285657e-05
5.269610338719783e-05
8.144685307452426e-05
7.480133429451277e-05
0.0001142635677532719
0.0001169668906279306
0.0001225750005856472
0.0001015300615824715
7.709915756283115e-05
8.162442470930783e-05
7.929513609704649e-05
7.333448260498936e-05
6.848038402432399e-05
6.556195315766635e-05
6.505945301224487e-05
6.349949351717008e-05
6.251726534420559e-05
3.852894234950987e-05
2.367588241861203e-05
1.389806796931765e-05
1.703822223941227e-09
9.433782761178643e-07
1.757556696730547e-06
1.435523869382285e-06
3.558747713293704e-06
3.98217897466378e-06
1.183784903538697e-05
1.769650793670222e-05
2.379442214126083e-05
2.506461314248862e-05
3.692619648495322e-05
3.911686663400486e-05
5.515012567539498e-05
6.173888290439876e-05
7.877191435110317e-05
7.395710113578201e-05
9.699731343129953e-05
9.082949587767297e-05
9.99836510246064e-05
0.0001001707544782739
0.0001083112511527665
0.0001075123267607705
0.0001480611572113224
0.0002132669528999884
0.0002964814690206036
0.0002669134596460519
0.0001006567501221404
3.767595306533089e-05
1.96512164216487e-05
1.485652566529161e-05
0.000210203815184275
3.010917562128229e-05
0.0001470590026590805
8.273802065734598e-05
6.489493564020326e-05
1.555262548380143e-05
0.0001235023325573619
6.072063753442843e-09
2.109112520666285e-06
4.124237057145615e-06
6.175808089321056e-06
9.462043839775296e-06
9.853481949237416e-06
1.661320823597402e-05
1.519624400296687e-05
2.631001112778528e-05
2.338654537700007e-05
3.940190481990537e-05
3.60332288633155e-05
5.801349201705913e-05
5.393662501027021e-05
8.359784509418669e-05
7.8309502229642e-05
0.0001191135302137404
0.0001184050267998972
0.0001584175127637692
0.0001234914687921621
0.0001006738691867277
7.836929773479334e-05
7.890843930715573e-05
7.855358083219261e-05
7.492441950034344e-05
7.163339059312429e-05
7.132035253665677e-05
7.310366839741269e-05
6.678764506142689e-05
6.90620935216453e-05
8.865986471917257e-05
3.955571310575716e-05
0.0001009131294708498
1.92194301543453e-09
1.119846424560854e-06
2.033939794577138e-06
2.219496270655644e-06
3.396348139456664e-06
3.293659933960061e-06
7.684250581776242e-06
1.326663443495835e-05
1.838163438844342e-05
2.592963921517883e-05
3.430466087258924e-05
3.348682823403947e-05
4.90342642783581e-05
5.668856438914529e-05
7.104556952954074e-05
7.28803404822122e-05
8.916968079839022e-05
8.788099139807643e-05
9.69879859631804e-05
9.852061796709142e-05
0.0001074050695278215
0.0001097059866619987
0.000134746593097061
0.0002037352694563552
0.0002985919726750721
0.000388789841284954
0.0003404740394068542
0.0001229962816754306
4.74748175726272e-05
3.77878854742142e-05
1.062895033938199e-05
1.404622858861631e-05
0.000208663912488754
5.803030352314186e-05
0.0001977744109393905
6.849818972606112e-05
7.423628265782751e-05
1.862752055585702e-05
0.0002153934712923963
7.152991693384953e-09
2.113073292408436e-06
4.155971356054707e-06
6.285197582279336e-06
9.533291174956051e-06
1.054627643150521e-05
1.677385027501764e-05
1.560748925756405e-05
2.672162439205213e-05
2.413582167158898e-05
4.010152604515725e-05
3.555996044092812e-05
5.902327744520521e-05
5.426510091938318e-05
8.544541591090582e-05
8.080470487631133e-05
0.0001228875609968478
0.0001206122216872383
0.000175567425462365
0.0001741493662741229
0.0001219308664238012
9.834765573175111e-05
7.580361246330263e-05
7.579521135199609e-05
7.798038511922264e-05
7.632981129622988e-05
7.695699572963582e-05
7.902496929479347e-05
7.524120338219873e-05
7.659143223955877e-05
9.33610256782881e-05
7.030887966247447e-05
4.486514090270727e-05
0.0003067967863941863
2.136214876708906e-05
2.056742632760686e-09
1.205567072597411e-06
2.208687695465291e-06
2.684136432436852e-06
3.946141438021561e-06
3.23638587017713e-06
7.511086852473088e-06
8.918115625108971e-06
1.467903523948367e-05
2.579080164861541e-05
2.696768865334306e-05
3.303237295319949e-05
4.378392188681873e-05
4.446439094858609e-05
6.575812255976617e-05
7.035522721993513e-05
8.164842833491572e-05
8.638338124356725e-05
9.237115787323392e-05
9.684790730211806e-05
0.0001057174813083181
0.0001085042800526422
0.0001415325219514607
0.0001845160584260224
0.000257907968516446
0.0003904524911770549
0.0004722393324185571
0.0004952738255493711
0.0001588670629144319
0.0001263480960568215
2.687867895721325e-05
1.743808049852465e-05
3.529426711016452e-05
0.000239878970280418
0.0001577718410204804
2.073752660015452e-05
0.0001815028274064052
7.032196795471114e-05
0.0001020215543808961
0.0001454921773460913
1.074153421555399e-05
5.118994107409445e-05
8.543017461746989e-09
2.284823800422613e-06
4.296894308965914e-06
6.095777655257431e-06
9.648520794367204e-06
1.023447222979793e-05
1.706614838760498e-05
1.570573495189874e-05
2.714789963248079e-05
2.44896646055852e-05
4.087375912006705e-05
3.682729289329774e-05
5.987316992225351e-05
5.511856185074872e-05
8.721581658756312e-05
8.220824247217169e-05
0.0001262657583206551
0.0001258688719746688
0.000182896679503529
0.0002047319625550024
0.0002011139797771881
0.000121953818926985
9.527705540586626e-05
7.2477726732843e-05
7.432469626924064e-05
7.776800607990472e-05
8.075180567220607e-05
8.183136811787673e-05
7.578441539132377e-05
6.921198914393917e-05
8.723563792576161e-05
7.484530911578206e-05
9.320089880415213e-05
0.0001091278383083413
4.911582955571665e-05
0.0005627357588956102
2.293983367275604e-09
1.262560984892519e-06
2.383993548296307e-06
3.176924681031377e-06
4.56599824254612e-06
3.279080282773832e-06
6.270767690433426e-06
6.844571404028093e-06
1.062833704122562e-05
2.024076659483362e-05
2.325525137990915e-05
3.603138961286619e-05
3.694826454652826e-05
4.55516562592281e-05
5.349408313339363e-05
6.447211577380813e-05
7.578228564034344e-05
8.489166154207439e-05
8.984280768147652e-05
9.423609064225066e-05
0.0001043834344568094
0.0001070935190353577
0.0001397981729282564
0.0001943981466551958
0.0002413289524246778
0.0003249247360668705
0.0004731566512291131
0.0005490945815026582
0.0006126079378928038
0.0001887745969855596
3.87438186169403e-05
0.0001071487782154756
3.982600374180313e-05
1.96930384954573e-05
2.08861791310151e-05
0.0002451624797828124
0.0001316040989903033
3.494290118872902e-05
0.0002137577942113956
7.277492769614758e-05
8.402067975297888e-05
0.0002314683780459723
1.462872888631389e-05
3.622976447478979e-05
6.762358145839313e-09
3.12169770929807e-06
4.665437146932453e-06
6.638338282797025e-06
9.775829128384906e-06
1.041474841071692e-05
1.737853447762629e-05
1.584427756598587e-05