/*--------------------------------*- C++ -*----------------------------------*\
| =========                 |                                                 |
| \\      /  F ield         | OpenFOAM: The Open Source CFD Toolbox           |
|  \\    /   O peration     | Version:  v1912                                 |
|   \\  /    A nd           | Website:  www.openfoam.com                      |
|    \\/     M anipulation  |                                                 |
\*---------------------------------------------------------------------------*/
FoamFile
{
    version     2.0;
    format      ascii;
    class       volScalarField;
    location    "4000";
    object      k;
}
// * * * * * * * * * * * * * * * * * * * * * * * * * * * * * * * * * * * * * //

dimensions      [0 2 -2 0 0 0 0];


internalField   nonuniform List<scalar> 
18230
(
10.77840302002334
1.977791995864945
8.912150990046648
37.09836939028742
0.7268281805855002
18.2275504425547
1.395388986690091
23.62487446089379
50.79003076918759
1.778086917201479
5.415903859526741
35.3823093970223
1.806530977200001
9.650180716652581
28.86627144650635
60.77887471525687
2.524076730750267
9.758352632242357
7.045271146380196
49.46836622437306
5.0940161530132
9.018277761057632
10.82693357726561
32.96092304729977
66.47625946944812
2.290955316358637
13.47442208156412
9.188356157520872
7.271613237267443
50.70289824056933
7.758333497708822
23.29722791518139
15.17059013818752
11.60935298753324
37.20018154547883
68.92025183634348
2.795586840749739
11.86880887245543
9.731053212566657
9.015739439422726
7.356626329920656
47.95603938863045
10.32534802400665
36.66636765259864
30.40462284975359
19.65650406757969
13.26690829560565
40.7415212616308
69.20066187913396
2.883584136946094
12.99065673351363
9.566377016389215
11.24233873864188
8.676236476087039
7.54091271123368
44.31512023317083
10.37855095672586
41.68097651507756
42.17216531737585
34.70344736811184
23.95082544355038
14.14576935066943
42.33946469285875
70.10910707952866
2.535128466281372
13.52734743189716
9.851269150511117
11.69662085252017
10.39610188550889
9.209971163416073
7.849828792492291
41.44904254397225
11.79288469976604
33.6788959551257
49.41076069218807
48.34445164665058
39.67678780392883
28.21107100826616
15.87747098971568
43.38263377737391
71.96286299281643
2.559535890941476
14.12070259954787
9.97290115011471
11.90654231981878
10.69877442214661
11.6496330014586
9.657448246452061
8.240660032966714
39.69558712948767
11.22866991667082
37.18294624364599
49.60506832957989
58.63797330403616
55.41455036737936
45.39819233297516
32.66506450780001
18.29115598034246
44.56711088115281
76.59348004704397
2.48750547630494
14.78903092230613
10.00193953286226
11.9781800911845
10.76667009565692
12.17484314124785
11.73184279838986
10.28843422817228
8.704158174026484
38.23564166204682
10.98868220332838
37.95697928890361
51.87006903500011
61.36777538748292
68.42541907775004
63.64035232799522
52.08046018601761
37.52606175367221
22.01170819009754
45.64552012652479
83.96170787315265
2.295115178510432
14.98586952549714
10.14742420216225
11.9587395509273
10.86649201384411
12.27912722706801
12.00779862343947
12.54720862619471
10.90424115517333
9.239766138278981
37.22163789830203
11.67992183653084
38.38625988250107
52.4245240529432
63.27814367685288
72.67734793558903
77.94456876200024
72.09538181267733
58.77825368119313
42.93433281768748
26.76738973890772
46.13360959251524
83.25309969351369
2.001510804717527
14.6662914688062
10.24033872075429
11.8035307158627
10.98186280861434
12.39040076050849
12.14520712415498
13.0774426284059
13.10343393000461
11.59772806167813
9.851200344496336
36.35641214686862
11.85526604875277
39.49704304570804
52.48488509424762
64.00785896332106
74.16014691991724
82.90009421786142
87.76219018639888
81.08752186775762
65.79731417394875
48.70487096448019
32.64584120907847
46.23659048551706
76.69125424424743
2.08823279346493
11.7293590077747
10.15681225879139
11.80875017551543
11.09742143201311
12.48288849045959
12.34129438956125
13.26660152114878
13.42276794371796
13.93187279051972
12.39000529972316
10.53840417856875
35.60320986782629
11.04958821297218
39.88967313781568
53.02786972669659
64.15470049822557
74.872035225988
84.38895381481338
93.38877515879636
97.13078949995742
90.20748423777869
73.50083304956377
54.85255452397207
39.76594744971607
46.12129953974631
67.76566233522313
2.169537392322886
9.30577715652786
9.536256692507001
11.63135630921966
11.24379925625867
12.62127351089783
12.56555237922563
13.5178239851353
13.65384351696685
14.32870040555749
14.61161602817574
13.25678209843917
11.29655559731572
35.32358287334394
11.80493836315297
38.6974397283322
52.89887266374925
64.61495573090752
74.9655058567464
85.24116824261269
94.74827640713735
103.3377148097571
106.6272102612165
99.26202205514909
81.24968191329815
61.41909168004756
48.50247195628514
49.87314038389025
60.7101826689762
2.383907866930069
9.525419789617024
9.4573678112026
11.40967400909198
11.3559221572543
12.83176559556252
12.78236291788988
13.80390893933099
13.94707967933598
14.59765407301901
14.90940788629512
15.4945239799469
14.12157396766328
12.10537994475968
35.3437062917871
11.97220090841891
40.03467690211543
52.05454166492665
64.3134915292178
75.12571577247927
85.38301246848116
95.55565389915461
104.6593348745313
113.4187260523242
115.77863196332
108.3112287369436
89.23382596527098
68.82217465965464
59.1437301851886
56.58072651667521
56.63931715611811
3.154869981163984
7.970732786852823
10.559441413067
11.1239706260552
11.54425698424394
13.02428609849263
13.07929661801599
14.1166069676386
14.28998066541821
14.92379528566052
15.2166281094558
15.84681712169462
16.24320524359864
15.034559596562
12.95899899360823
35.44455508742853
12.04566042646323
40.94462124909507
52.81408143664461
63.54475749014844
74.70907335707399
85.42596845036417
95.50960529988262
105.4704613604495
114.6687199516143
122.9191144299956
125.0940532114467
117.2401465050576
97.16369054083329
76.652607758545
72.29177388430101
65.77831314758225
55.8122771760769
3.141312883428479
10.37283436486125
11.20793672328894
12.59431892092764
12.25320552903134
13.37863119678518
13.45395752661801
14.47704280014987
14.66225147704798
15.32756873517487
15.56534571902723
16.17770254682933
16.53407773580804
17.07309266987855
15.90657319265291
13.83814606058468
35.55815240944712
12.45346506636146
41.18014843418136
53.44025438260233
64.31876316688296
74.07856959766015
85.04876562257677
95.44211549665344
105.3894866848184
115.4620671843414
124.210761746897
132.7259192075266
133.8910172081106
125.9228726146062
104.592744380809
84.74372505945033
88.5858795568135
77.22931582791979
57.64764043970087
3.244370253678998
11.6850468083905
13.092529387579
13.99030176547174
14.18467621688659
14.53960571557632
14.10548310602043
14.9448305571264
15.10714753860483
15.763407266043
15.99078583185991
16.55466026228709
16.87983011350657
17.38568064496102
17.79010972933098
16.80375220375209
14.73348058682464
35.59915178578282
11.98799270131754
41.04605140222581
53.02496507225703
64.67457766011728
74.65367615756122
84.45682668546755
94.98985393360373
105.3612342318559
115.2787402538986
125.1993438756729
133.9385873718835
141.7814270644276
142.832529641357
133.5190681320899
111.3587064793303
92.68999050373618
107.3543738316277
90.43332006564442
60.17545708097848
3.316363996651631
12.3060513558726
13.76100432009029
16.11958929734744
16.44834903841801
16.23604663155412
15.68038671594313
15.75294337203098
15.66344078503962
16.28882930974456
16.46362355677897
17.01514314853044
17.26613189607354
17.74111224289988
18.05950290783903
18.55677113997316
17.67218856145213
15.63483894685612
35.4804307409024
12.58293325819038
41.75983163160338
53.11355383777605
64.45585568769076
74.73263266976193
84.94922256727874
94.51240986007259
104.8072490557957
115.2707226142438
124.8694751154185
134.987618493596
142.7912970744335
151.2976996631049
149.7759189605834
139.5971702419415
117.1167706955236
100.0274835606264
129.1140833211055
105.5378802031044
62.96802817471304
3.522294396954167
12.12422380960085
14.2955501579408
17.040007365361
18.3500711897164
19.0026276819228
18.01469401589917
17.52166123608786
16.61001734423015
16.9344634916284
17.01675690190116
17.52911311498383
17.7214280164195
18.13653944160288
18.40859506017216
18.82710681397433
19.24687825580595
18.54633439835656
16.54538627752223
35.35142489566786
14.08424554147437
43.21055785972248
54.64981301176074
64.70445393103623
74.13588314187415
85.10478617351603
94.77407690301209
104.4444920692775
114.6651623303061
124.781547513765
134.6297434612732
143.8858014120224
152.1707813246988
158.7351379833743
154.5706333308269
144.1286625332418
120.9632315816673
105.9423913773534
152.9666421849058
123.3125205571307
65.88070896384694
4.242573537887671
11.75625704190745
14.48989376807947
17.62816422942828
19.08065415476208
21.49638910644969
21.13024052532333
20.32700613769343
18.70725162257172
18.04467159462061
17.7119338882618
18.13004286958873
18.23447542324107
18.60616973676504
18.80273305543152
19.15876942739139
19.49336810837144
19.97175237852194
19.42321921313551
17.46117346704751
35.26900960778017
14.61995446091354
46.96540827082789
58.45245537252895
66.83063343926234
74.59236024005907
84.43291674566619
94.55964347043778
104.646763118289
114.1623954624377
124.3003489045017
134.5950428829273
143.5961296889081
153.0281815330947
160.1230904222083
163.0535506497975
158.0941423109971
144.1864051646148
122.2719496266204
110.7809182442777
173.860481856533
142.4022862085945
68.94813380483073
3.593135134946676
12.22395567250541
14.66761286347686
17.70300310996489
19.60599153088137
22.55741465328969
23.36581547098683
23.78692643026522
21.88842466779877
20.43646369308955
18.89446612302699
18.87179639407258
18.83402903100226
19.13728795578885
19.25976991895551
19.56257745485631
19.83503527293147
20.21488536627771
20.68197991029884
20.26276518777421
18.38859625236625
35.7293216359957
14.15925408926311
49.14243340803591
62.60716002090552
71.54955647363575
77.32980348322241
84.97822766529227
93.76416763539467
104.4471403140287
114.0911466844598
123.8384823135223
134.0636441281004
143.5626135036273
152.7230107654939
161.3599224876138
164.5572097389381
166.3547773930862
154.5710068766305
141.3802573412606
119.2632039181901
112.6861377101567
193.3628844794214
161.501799862983
71.78916671069292
4.355552053005618
12.55619422179274
15.10242471463004
17.78208212165586
19.90813350439194
22.76764962399504
24.19083238476261
26.17008545441324
25.41499082736859
23.89244004349029
21.44147042906235
20.11898163738884
19.58426285242938
19.75923388059485
19.77382231042059
20.01549098833418
20.22011250527059
20.54602444584145
20.91645963390807
21.37109336553883
21.08614227020232
19.32901364038197
35.49160472117966
13.80542342722653
50.70372104446708
63.76734344461638
76.21873520686235
83.48684495694961
88.50253221744599
94.51097735820105
103.9330313512976
113.7104623450151
123.7760448852682
133.3819076845506
143.3888849827356
152.197551851241
161.2937316114667
166.0129154865292
168.2607525686219
162.1440174335477
150.322561714307
130.2591296217847
110.4840817946147
108.7935104914491
209.1749872831085
176.5422086967183
73.91956474770082
3.44995803791757
12.8682995717436
15.38685782606518
18.18078777821321
20.21894389135557
23.03847402187254
24.61618271218223
27.10598021566058
27.60225525608266
27.67095308411465
24.99510550822223
22.79505029548838
20.83774830874555
20.52924695063808
20.38268291749379
20.52934883565096
20.65822946374357
20.92404416848526
21.24710993662753
21.60735695984224
22.08652257048997
21.885290520794
20.26905159280144
34.48843399208079
14.17945659797162
48.87580342390315
61.64121210369505
77.36468947930675
88.60566396922718
95.47240248686488
98.7478193998251
104.857260497219
113.1660886202373
123.5916253788752
132.922071443057
143.1577023070128
151.5406944690148
160.9480538431975
165.8955582026989
169.4262685801365
163.5627905140153
157.053296952726
133.8770676767625
111.8648140141194
95.51216282398465
98.45348847754245
226.530256798212
185.5586673786327
74.72695808244187
3.523461943363753
12.37478056119934
15.68938984371228
18.54921756970976
20.6717148816015
23.22893999859825
25.12751181811021
27.70574614753732
28.45233192389552
30.14810048330788
28.72206442596663
26.57336461659956
23.5254801488322
21.81707332297673
21.14033391105836
21.13771889078377
21.15041710481378
21.35017039923484
21.61003570244572
21.92886045421748
22.32677503797586
22.78956892397696
22.65228011829467
21.19922873716251
33.20382252415053
14.1242131547926
50.5537616231554
59.94562527475527
74.07536899697546
89.29615675349801
100.7494302640091
106.9372436904455
109.8166081322319
114.2720411483223
123.3308834561759
132.6161873114229
143.1031636072443
150.9863815942677
160.0976085818974
165.4595591873528
169.7408434324714
164.5513383578516
158.0315385853248
138.702521028519
111.4493189621534
88.25753909371187
76.8541749620328
82.39323265446116
234.4711735624371
188.9733576170092
74.47053923249463
3.53888865458427
13.17605331364038
14.96421362831117
18.9841866568699
20.98673661453175
23.85770956687783
25.5373253577737
28.1318135184398
29.19220552470842
31.12891629717874
31.08566376923554
30.60675999426282
27.26967898439591
24.5704509324179
22.41098181482223
21.89247427939175
21.73388687012798
21.82657777828422
22.0204364419754
22.27826514219267
22.64163115725434
23.03010785728955
23.48077887381367
23.3906071169215
22.12385695015184
32.22386856326694
12.63591448697404
51.54440675702162
62.61948935235422
72.15612728990243
83.76899642708928
101.2506430735552
112.3140571889636
118.465775655608
119.8061787071777
124.5158176130657
132.3411510010619
142.5908659769694
150.6036926971254
159.4734111837514
164.5430859370129
169.3905228687928
164.2944275183202
158.6712347585443
139.1609711751596
114.1473663254537
84.79797163473718
66.00295625291085
58.43032499665411
64.82931666802459
233.0049234026105
189.4478213285117
73.33602954827693
3.62802896587801
13.12433943243284
15.46694908160357
18.4670026784138
21.4355539656129
24.29025651088916
26.16553049405504
28.52445927464014
29.88167924857188
31.81487427973935
32.08596930359855
33.14413969863701
31.13895773310724
28.47384625050247
25.07997574903529
23.1534164386854
22.47580852272141
22.38691092703372
22.47640550263037
22.66660313905911
22.97743862686001
23.33626899055637
23.72628319835378
24.17227047148411
24.09367455366137
23.0638672041461
31.8268405442841
10.87991912351996
51.65848922759925
64.71829029401007
75.25024120326906
81.61051794794321
94.72302096676198
112.2318363989672
123.5025373162089
129.2976238992935
130.6782197012327
133.6639682909588
142.2380748011975
150.214086376312
158.6874489896861
163.6644630051556
168.4375539814471
163.5391600153503
157.8867059043625
139.3346362637211
114.0230358489432
85.80016269021793
62.60997209208303
48.65185687676789
43.63313010789677
49.84034884619282
226.3806264753515
185.9874937413486
71.06029537956441
3.619103383491729
13.05419395154986
15.52756457226401
19.03355022104262
20.8960640128636
24.65492128352697
26.52265956146108
29.1960572949158
30.42996581042916
32.44859213952643
32.90716348035374
34.29353383383904
33.63014720074312
32.56228276478522
28.80863229652786
25.81522194067535
23.69784504702388
23.10420367488659
23.01375788124887
23.09772171401392
23.34453731797701
23.6554100252379
24.02760039148727
24.42942251412661
24.85808835288094
24.77552696319776
24.03258692750475
31.99589980001129
7.759052769281056
53.51936827786539
58.88439391570832
78.0760365758821
85.59879742890891
92.46276556626742
103.8300936805033
123.1380590853676
134.2143655567696
139.9396022869053
140.1040884528169
143.6171843383265
149.6839447690184
157.9187274040962
162.7048773185122
167.4435798133262
162.2956782704659
156.569636984001
138.314230489353
113.6869030027436
85.55119583450789
62.84724496956237
46.30707984842881
37.87364279286327
33.90266383118598
39.19468285995838
217.6968095239862
179.1467535623628
69.62231183508784
3.625447545065499
12.99154839025146
15.59841224347553
19.12897732286194
21.30751985207486
24.53397604788577
26.76644081574798
29.56804875887313
30.97738926931625
33.04586844944795
33.70873249836734
35.04352015606412
34.78720255293533
35.15772198685593
32.66369357089811
29.57080053206752
26.20589936136535
24.28583368660622
23.70859591521763
23.60500641589633
23.75174304141902
23.99667125677578
24.33365449797276
24.72941247186322
25.13035999356311
25.55138164909379
25.45362804574826
25.06422701804985
32.57189275856733
4.121922430086759
37.683781057266
47.67852411989642
71.53452097037572
89.25180584061863
96.82171715731641
101.250247550358
113.8295730323401
133.4294887538664
144.1621663671113
149.5336475360895
150.1109901767914
150.9272673825431
157.1804367951159
161.5069980535267
166.1670768001484
160.924689993939
154.8393494318336
136.7999155221506
112.4107297912464
85.1169509369
62.60146038977582
46.21122182313159
37.01084356658063
32.31437004611358
28.60494707636958
32.76969487911229
206.398570623791
172.3500935117584
62.66988423726834
3.631767697186414
13.01532331731013
15.59629393299898
19.1020239643428
21.44325839821271
24.85870668575458
26.61846495622852
29.73961672388515
31.24459106217967
33.4717472938534
34.328074939143
35.77734922485016
35.6631472779106
36.3384098571556
35.2302087545398
33.53858582953615
29.72699746357334
26.70266636019273
24.84246215933799
24.25395594636174
24.23246095481687
24.3738507008946
24.65312606076419
25.02480970033887
25.43154756708949
25.84471601727704
26.26037171086087
26.21860285726189
26.10011761854436
31.50873087012142
3.716263316159534
21.0878534551259
26.90345448747464
62.03265313745354
79.16626327645992
100.4998739409454
105.9501151329245
111.0316352149079
121.3065395004043
143.4556644156626
153.1238001850994
157.9833950164997
156.9888805704914
157.5829786259645
159.8548660552531
164.4611266912094
159.3588937635394
152.9726177313992
134.8732873296121
110.7317954950233
84.11207150359894
62.26944684840615
46.07650890146287
37.00818450127515
32.26397810904775
29.83630316701953
26.56313769033988
30.20603998986957
194.7863189281765
145.7975943134097
84.4530233064546
45.22506633388073
3.599859805496193
13.04409644445045
15.64046671613879
19.17729639859303
21.46653321676505
24.78039644206963
26.90415089161358
29.78688401910246
31.34551452881316
33.70851483588984
34.66960587120367
36.27810431589138
36.42506059959616
37.1251639210961
36.42775771268513
36.12321156409777
33.32515397381557
30.10562015999297
27.087904074557
25.31479117395232
24.85242729517117
24.81818367637756
25.0064641754073
25.32722945413521
25.71670099715114
26.15389242881042
26.58385421743918
27.10147599927313
26.97067554252809
27.22061906063357
29.30109904102678
3.879191249250714
17.08312844762337
18.02582580147404
32.21088170216751
55.23404515676665
88.50347163415552
109.7604908764313
114.9946347123063
118.0004680684516
128.7788793093632
151.1278303410714
159.8500387847189
164.0581156318274
162.2313540310722
158.8738652529896
161.2921603574346
156.7912978785581
150.601974739136
132.7221498330177
108.7081791466967
82.83281164541847
61.61982902759375
45.89720416549787
36.97333367787953
32.34690895457737
30.08942489570576
29.33340079484596
26.73007076769548
29.50201802181563
157.4060226120133
245.2371754727106
70.82525232372069
45.38762681545091
3.604783602025757
12.90072882861357
15.62444021538204
19.30641647108881
21.55026852104394
24.82763846245344
26.88928729190846
30.059441628415
31.34956406965465
33.82680315609463
34.87413610437935
36.60778377823745
36.92641822478107
37.75105890767304
37.23277607938105
37.28746388729962
35.82990628007979
33.64717342474063
30.21103150036668
27.41579099000289
25.85789085935174
25.39258065662578
25.42268120025155
25.66227554767819
26.00415196578106
26.42976150613279
26.91008155179927
27.47032325836748
27.95917506035277
28.25793730556903
27.87021877738421
30.40916007218014
4.130762242142174
15.42129415488966
17.06565644644256
23.14730933239935
28.39769754345187
60.81504821675213
92.91084507473833
116.6653619656682
121.1673111797273
124.8297744568756
132.4838913077375
155.5730519877675
163.720605614601
166.0736992269381
161.0751607857798
157.7438074013872
152.5279354291873
146.9132370706689
129.901512570279
106.4779719637646
81.29374626225956
60.77871388716041
45.53551495177658
36.90434493935922
32.35663663716273
30.40382400150506
30.04785862593899
30.00724790992708
27.54430553645074
28.25306349811932
199.2415761613687
52.55168924334276
236.1346584636636
123.839584257686
62.76662251313346
36.39750178332886
50.47094953070149
3.561475381384624
13.11129448281565
15.5079976109784
19.16793045003824
21.64290931122181
25.02089526522672
26.96421567146163
30.02472646017517
31.62710348173211
33.95172178179767
34.96048395176883
36.81998042753936
37.22531809104158
38.2034467694947
37.85523677878169
37.9728512772119
36.95105662784218
36.09173435487521
33.28739132244263
30.32227702713115
27.79404413049315
26.32512251802515
25.96704297239091
26.05558194064215
26.3217744349563
26.70964176762195
27.18839502392506
27.82468043736261
28.37219021857678
29.560156586918
29.7199659221448
29.41221028691852
29.76724758566684
4.443164555024266
15.28489529404757
17.56789813555779
21.01182122615864
23.49473142357859
32.34039814570794
56.70642210370975
95.66841901363139
120.8027592757887
125.3217416478679
126.3455566893309
135.4513852510499
153.4562185453828
162.5983946068776
161.4764193712257
156.285826408854
146.5069908330586
140.1443177118327
125.8275070718069
103.6745134938072
79.65932545962364
59.78088140915469
45.08052107324374
36.70007677409475
32.32325766698329
30.46176640466807
30.36551536319244
30.98510707852206
31.61436155473267
29.68048236106677
29.25735168748047
28.01476485085492
139.9478270951081
36.80401980878972
240.2686496618716
96.55281015928648
61.28927928981924
36.70014091082713
45.1739845073851
3.815669022801812
13.10933327987062
15.55437545647194
18.9873165206446
21.57425258624596
24.93753638372312
27.10407130319861
30.08175728427758
31.68009232897267
34.1903215617528
35.04334043756236
36.98792937038212
37.42640331560447
38.528739832477
38.28259234603931
38.53067010508367
37.61544956141289
37.14134418224399
35.53413210146861
33.23537955411857
30.42988077820891
28.11526308384862
26.85119891562417
26.57320226805788
26.69654200365617
27.01779381938343
27.47227396639162
28.11871308872138
28.75982784921115
30.0550761796997
29.99338877060219
30.49570720574613
30.42342813704544
29.6917077360167
30.43517246782944
4.545961900258131
16.17048032196627
18.22434346184706
21.91369773411987
22.99180149427521
27.43040876642944
32.62842053088554
55.32882647542738
95.90977240056068
117.4126903365181
125.7441760788516
126.3901381058228
131.1032677025802
149.8757117227021
153.4321979937596
152.0432181830028
141.9306254422663
130.4308451403473
118.3153738254135
99.74108313411695
77.61029041097923
58.75142291758296
44.53163794346872
36.43480949129617
32.18455696477783
30.47986766107078
30.43720823500768
31.44121634608633
32.99409244007812
34.03127654760889
33.34942920652588
30.28652227589403
31.10965699783476
171.7566226769812
38.73298307422186
34.89825347252335
222.4953223046263
73.53970459286654
134.647560475852
50.84680241331905
33.68214643042361
40.73568094008931
4.58419398670762
12.70979293332548
15.60092414734315
19.02645228843872
21.41965691710352
25.01482827681115
27.06065294914798
30.17939721962634
31.75507477153215
34.26773262902485
35.31068264612173
37.09817145853955
37.56556053985732
38.76430012344542
38.59583542150216
38.95053811275699
38.15852543318408
37.73461437398547
36.53108585715751
35.36165998783525
32.97477235537927
30.52253417004713
28.51919505537043
27.40259905864225
27.1937342532641
27.38465169947862
27.78540831327653
28.4173492952082
29.07174271406144
30.50931220524657
30.897638290077
31.02596058473012
31.293973733404
31.04048584736045
30.53128861254756
30.43893580323786
4.838215083135665
16.68340119904733
19.13616954252195
22.75877392722274
24.38654844279693
27.89077459052829
28.58032617532799
36.07388949510219
54.45390948664402
91.50652072789103
113.9362495857065
119.0954573370313
120.8254676923083
124.6145167440022
136.4877909652672
140.4379802154085
134.4663712265981
121.9842700991418
107.8995884327061
92.93342062119392
74.80473334801449
57.44621721161663
43.97494874911802
36.13366686570306
32.00611197434718
30.40067374623129
30.4564904517891
31.57004673140009
33.69629905013962
36.12479396011454
34.99584980678278
36.39302855375787
34.22682396522323
32.53474300698868
31.82806855922152
92.18643140561721
38.65835915819137
37.40940591373712
246.1939994425418
67.50031904981479
108.7644289565787
45.77069005431937
36.11436942463762
40.43937521708189
3.507937282475412
13.1290830765108
15.72584044992599
18.97058858385992
21.36315910726351
24.90126076164653
27.11827398083761
30.16498445508894
31.81687329582737
34.33335510590827
35.41982155199474
37.36515906262738
37.71674454757103
38.96083163922944
38.84475861781539
39.27324140633355
38.57340851633614
38.25745264551954
37.10917153570327
36.30613788678312
34.87607481662505
32.88909594423149
30.72539184196466
28.9320416319668
27.99064237768463
27.87475900494304
28.16090544259063
28.74208433565225
29.38056841056587
30.86684603771289
31.31589938620386
31.49907734633691
31.18473496312359
31.41708296176124
31.65272215761219
31.27160114784151
30.65971893131129
31.27480929931504
31.19510898182335
5.207184164601012
17.098772376551
19.89190527047477
23.61746745299909
25.66855079164517
29.10781334638695
29.42601397602607
32.27096698451511
37.50798027851994
53.2403060692199
88.25145056087874
103.6496621792921
112.2990235135569
110.3700691886948
114.5791677799464
119.6100671330151
121.6537042845818
112.2690280405152
99.23741264399163
84.20164889922289
70.07387790782013
55.68514549856083
43.26110991485767
35.8052435358277
31.8061894344082
30.27745123434282
30.39394944447178
31.59066176236633
33.89536432857568
36.90543725236159
38.00805477380894
37.66977679704829
38.00612627310261
36.45150334505746
36.14909932877143
34.96088751222859
73.14378103447794
41.0858920593661
37.04858062360206
140.4950969180848
188.6103770113287
80.21018439303541
53.22202638369541
41.90143861217192
34.05349310271203
3.591897771466785
12.57663211214619
15.95192322027681
18.98147041816954
21.34927101850413
24.77612541171578
27.03194500545945
30.13277205693207
31.82487310006057
34.39133024535754
35.50991623348934
37.39257355185575
37.98674018642895
39.16128229091647
39.06044974731963
39.56058209011652
38.90967359939459
38.67986873846819
37.63107054932684
36.85816263146894
35.75598953296996
34.67909426326875
32.87093242732759
31.01442777333766
29.46349169579119
28.66471647349342
28.66020923596919
29.13086238410624
29.71484910257536
31.32663885365677
31.24368443856104
31.58682743266125
31.87728441752868
31.88250893277493
31.54800453583489
31.82256407572523
31.94722175182701
31.60601739639848
31.34638636417046
31.92248896882665
31.18693676914777
5.479544733464132
17.46285624014314
20.7879838352647
24.37664880857175
26.53125937797784
30.75488404634826
31.18531437011071
33.55735249925016
33.63218732002637
40.65414080074888
53.43384194360005
81.20498342628613
96.440017316884
98.31708806584324
100.7957923730948
99.33868871491795
102.9063837811588
100.171818331913
90.84265141556946
77.78015361603411
64.20832780796542
52.7686900425956
42.31594174466267
35.39339640288066
31.58779622547958
30.13395907242101
30.29111674711474
31.52819318774316
33.91684082528069
37.38358590201804
37.93326589352651
38.16140301116988
39.12898320148233
38.70223498564237
39.16358137370528
38.31659313773975
37.44355678536721
37.25959619177929
51.35028479040562
42.86955917791806
37.01996906499173
105.3341663458415
186.8152249583619
66.84821198855691
48.84178767070872
43.14824890665927
34.29402744841541
3.581422660759883
12.50312603007936
15.18953199586953
19.08002208323476
21.5002289029953
24.7164561356413
26.90252388045818
30.07280935395303
31.80235992332658
34.41398900938378
35.54777651762939
37.55019758152947
38.05580617768472
39.39168011345875
39.28996128757731
39.83058104918528
39.21140455490042
39.03714717841066
38.06138700900529
37.37444627898729
36.28354805408134
35.50337933485158
34.49594452955939
33.00494893898075
31.4399586584727
30.11602055143533
29.45444092463818
29.63813626059253
30.12483304327155
31.57507296402334
32.03115134016846
31.90165174107103
32.0463931532138
32.16073798652619
32.08769704404362
31.8811964024237
32.16339420369749
32.1690874692955
32.00785805318538
31.96160594579462
31.13214600231377
32.26015383617467
31.9691738692515
5.593064582577875
18.10601264950801
21.58558680135441
25.20693577420365
27.4775637224275
31.48162732483353
33.009062314984
35.55914493444048
34.81781313396194
36.91819816703177
42.15893880889261
53.84999487692524
77.30830266643591
86.01954465662126
88.79085074529068
86.94668289839345
87.14977596638749
85.29218351562031
81.90852472407863
72.40249381532006
60.127816682067
49.25981038244856
40.73918839873446
34.83283738934987
31.30916147231387
29.97048306001655
30.17794528489576
31.43199291648422
33.83253244028944
37.27406072935825
38.27231521829307
39.36462695008295
39.25877208421583
40.21706188740941
40.12032540992966
40.13994695782936
39.4302954248766
38.96963527048508
39.14278960235217
46.94197001072063
46.26106552340742
38.51766365767671
37.98363075474543
115.5138861491164
160.0949521547572
116.3595503210484
57.01758587008892
44.30858963172126
43.14891438643409
39.12426667055244
3.534475071799614
12.58569579388517
15.24699131964275
18.4744060475981
21.53967083366003
24.57934152303503
26.9328707301488
29.97285126203704
31.76157062435625
34.40663321978867
35.57617479025487
37.60853996676619
38.1859594739316
39.47151617057865
39.51404491651297
40.07081205405516
39.4822513523827
39.36444116422249
38.43569796857937
37.81280830058866
36.7905071235353
36.00435630891221
35.25306914923863
34.51897858108071
33.2978645943219
31.99185940852634
30.8913264226433
30.43292229049805
30.66558250738409
32.12515664048019
32.35583274757972
32.53479504347358
32.57460111214958
32.50983035562085
32.44260762494247
32.32254135921336
32.53834112738451
32.50038747946219
32.38101361216159
32.69131216667287