/*--------------------------------*- C++ -*----------------------------------*\
| =========                 |                                                 |
| \\      /  F ield         | OpenFOAM: The Open Source CFD Toolbox           |
|  \\    /   O peration     | Version:  v1912                                 |
|   \\  /    A nd           | Website:  www.openfoam.com                      |
|    \\/     M anipulation  |                                                 |
\*---------------------------------------------------------------------------*/
FoamFile
{
    version     2.0;
    format      ascii;
    class       volScalarField;
    location    "4000";
    object      Ma;
}
// * * * * * * * * * * * * * * * * * * * * * * * * * * * * * * * * * * * * * //

dimensions      [0 0 0 0 0 0 0];


internalField   nonuniform List<scalar> 
18230
(
0.2792095958081173
0.02495173876880336
0.05592448908130507
0.2658951391831965
1.88436182080547
0.0752919400816688
0.03652453487353901
0.06571311880417874
0.2537787012654317
1.776586572387469
2.156617272418751
0.1598123437608116
1.03470729204278
0.002273063492596772
0.06639826532834679
0.2378006952819018
1.494575758848227
1.762500261842446
2.207645650677054
0.2485601953907926
1.716815681001607
1.068729167533805
0.02391972110002899
0.06603176775658418
0.2235712580631546
1.496431604286653
1.55950848299531
1.72549211171583
2.227066518555024
0.3141238760224056
1.197556282212837
1.713783977208477
1.081438136922386
0.03521324189076485
0.0678142408238817
0.2082285911792607
1.481830130772612
1.559389191397511
1.547123422756248
1.734666717728486
2.230464673936044
0.3716503384550716
0.8792418921963111
1.168503123095496
1.711411654674683
1.08328731652898
0.05672696194218383
0.06180229363327189
0.19541625305846
1.461241221002284
1.543768770798696
1.522990654391968
1.574586068349279
1.719933860879493
2.228112233619304
0.4197178035404081
0.8707133345875838
0.9105136506295983
1.165227006544679
1.713832206512246
1.096698004378002
0.06851619541899628
0.05829434635812195
0.1814145507318118
1.438090234911741
1.524755436038676
1.509543824242656
1.558301770754496
1.56313911805812
1.724441495097633
2.22056098899561
0.4647345670650138
0.839276610206948
0.8701048986997465
0.9172738696259838
1.163593985610324
1.708065608135902
1.109659033043832
0.07586571060248494
0.05484238174226295
0.1665536046950959
1.415144490859374
1.502923014068855
1.489886953744872
1.545436063582995
1.540031097908727
1.579722546590605
1.713200648693948
2.209767401354348
0.514828830109619
0.823198385537297
0.8427221739431734
0.8792775941757288
0.9208063118853028
1.165265869680995
1.704648262925815
1.120744380687904
0.0854026552387826
0.05343284038039951
0.1479741815695734
1.38792778285519
1.480709699757854
1.468350665027448
1.524456923646424
1.526283756657387
1.562561637355338
1.572317811902435
1.712191267123871
2.194417003666785
0.5702626540887861
0.8173976653762054
0.8320718435169022
0.8505778079874718
0.8817333609247388
0.9272311874759712
1.163908081974612
1.696597557499553
1.133055299864154
0.09919629868329012
0.05032900844501598
0.1193987126354698
1.360361108362945
1.452965830438673
1.448249852410329
1.503201832065006
1.506834601249243
1.548545882012741
1.552298919902749
1.581689361560257
1.703145626783262
2.176062198876283
0.6213393661727711
0.8175369984949836
0.83025739672132
0.8384956656950147
0.8550936161667482
0.8881823792404954
0.9315699788255932
1.164577234160081
1.689568807691647
1.15407036261089
0.1148401278123164
0.04693132669668147
0.08214059376311807
1.325269956309739
1.424670538452362
1.422374301168968
1.481304668660325
1.486600031673581
1.528973245164894
1.538041092458749
1.564983958859858
1.577964012723452
1.699963525176152
2.156002131069384
0.6819272237126639
0.8226510753505588
0.8326628572939234
0.835413047161114
0.8446414794887231
0.860771418664214
0.8928250497642078
0.9368719037297696
1.164442950088424
1.685967594912059
1.173652341450202
0.1313079272036948
0.04280760553969352
0.0523239277975927
1.240788773406466
1.381578333153697
1.39668282753495
1.45401114471083
1.463602887436082
1.5077176836473
1.518200636623261
1.551062801469792
1.559954719754497
1.583973774755699
1.691073133643217
2.132196813403668
0.7440247093500276
0.8271394189517005
0.8395533124610012
0.8366092271049185
0.8429463485694949
0.8496034058826156
0.8669276717847048
0.8985114235970602
0.9430677852311946
1.162445736417692
1.678711984094731
1.199766088230567
0.1488770823579262
0.04070641694956986
0.04019096758617516
1.11326713965469
1.271072355478194
1.354982056007992
1.42598894386396
1.437065032855099
1.484473208418405
1.497702660754138
1.531468652204588
1.545647308051155
1.568106157275474
1.581973201054783
1.683955969637592
2.105089039905427
0.8054811455519155
0.8337594148393483
0.8440976694714759
0.8429015249010026
0.8451500312082632
0.8472031170912637
0.8568085945857132
0.8720120523548425
0.9056706141376584
0.948220736312698
1.162077741573688
1.672398727388981
1.233399874944435
0.1708735976046342
0.0400814687123997
0.05100089489835995
0.9416697719620186
1.13629391278822
1.255576198954618
1.383489724688211
1.409623131183125
1.45756795039044
1.47368393180926
1.510708874555346
1.525858213536827
1.553803824576912
1.565136033140177
1.586411422679229
1.673892677100768
2.076527940040358
0.8773435239443613
0.8430712248166312
0.8523955609967973
0.846615920014647
0.8522009597010115
0.8486893661183691
0.8553420113509809
0.8614003761488565
0.8803981237498311
0.9106728642956485
0.9569015933675645
1.158862948964176
1.664450263954212
1.277535643673798
0.20074603957574
0.04153737302863111
0.08261280742555455
0.8426550261358737
0.9510399607047567
1.127327760425432
1.273758315185413
1.367658642152752
1.429520414085885
1.447203370193968
1.487194299980938
1.505024696286557
1.53420952185003
1.550924948776559
1.571493407884254
1.585822801058243
1.665417068510524
2.045096538360387
0.9544839752638061
0.8578151872685895
0.8638058818308701
0.8530108644307269
0.8566230191951212
0.8551610389288906
0.8575366324619816
0.859305805721316
0.8705087257505068
0.885010502056367
0.9208182623421878
0.9608806043252343
1.159890615239133
1.649853928208157
1.329185905521321
0.2389191463764371
0.04470693055797702
0.1271072904103423
0.7958717170772776
0.86154036586262
0.9457344482869242
1.140068979587421
1.260335115288747
1.387000186157657
1.41944864743443
1.460528621785853
1.481548002395194
1.513585968228818
1.531026595681687
1.557140361326519
1.569818713672814
1.58893173678585
1.655964684778416
2.013603068202944
1.032891113801339
0.8833477786414411
0.8820303936705892
0.86304572452687
0.8643839987277468
0.8583532529409689
0.8646299566482607
0.8608998941934237
0.8691333647534101
0.8746584572625432
0.8963060243095546
0.9249713228010109
0.9735686558277461
1.155399929908251
1.636403671097596
1.394841003861414
0.2939216630003574
0.04885219690694707
0.1754320052906852
0.7680616882483828
0.8224145320393498
0.8508180834283823
0.9563431451604418
1.132453680561402
1.277413177542331
1.375566855516067
1.432538268528534
1.454770455985548
1.490301741466683
1.510268638199805
1.537456864951496
1.555681070702851
1.575010160384943
1.589071108989998
1.648195345664501
1.981242562466123
1.114160037568639
0.8606636287623978
0.9053767920736735
0.8797002467669471
0.8755577920032149
0.8647599471717824
0.8690379103867715
0.8673311823275487
0.8714479358089018
0.8726785882004507
0.8868253332834856
0.9000927375946148
0.9394284532625845
0.9765479879554382
1.159903458686795
1.619058632270174
1.477218128289999
0.3655216904946184
0.04944940549070186
0.2297585793160115
0.7440803500438117
0.7943016391301018
0.8068975026887519
0.8676177227584015
0.9498706736529418
1.144823116786322
1.26845968900159
1.38992195249857
1.426733391893279
1.463978288683494
1.486955277839382
1.516908423085929
1.535706899111856
1.560343021770946
1.573313641979535
1.591062625905909
1.639901370864136
1.94981314265834
1.19375136784911
0.8183124016808988
0.8831578668912825
0.9037538487711348
0.894286275766162
0.8750188710602174
0.8769782236398527
0.8702244332675463
0.8785698946855022
0.8744582294249602
0.8854340830245169
0.8905952782097178
0.9158899585443906
0.9424095004763804
0.9954500105065807
1.15491827157181
1.604414006297296
1.547786194663663
0.4465627251187456
0.05154887578831793
0.285022747015803
0.7236870324960067
0.7664186183834716
0.7802083580681409
0.8282676333951969
0.8563726646478909
0.9630112547933593
1.13665676188472
1.281257728011664
1.382692934039949
1.436086693871091
1.460468538487972
1.493890193801665
1.514992558716903
1.540722458510109
1.559717074028819
1.577795876832308
1.591210312392091
1.633265050174016
1.919558676963153
1.268444967625024
0.7861611745074182
0.8330872994571096
0.8814019999060855
0.9173147564306914
0.8924038495119171
0.8882269664427481
0.8766891594705282
0.8832356624714258
0.8803376935373611
0.8881899240879345
0.8883604851750559
0.9073523129565723
0.918085666584013
0.9644175205366531
0.9976038502996386
1.161990065535008
1.589729337781454
1.614964994317261
0.5437080514869361
0.06543801561050276
0.3423631365523118
0.7031814520540771
0.7411071858572622
0.7562070881581118
0.8002309123796417
0.813551996314466
0.8752138713173599
0.9547303837974734
1.150190902723663
1.27454201772902
1.393418935653146
1.432403133056787
1.467896812641292
1.491886807353156
1.520224134175903
1.53956504230829
1.562591457422959
1.577423676915503
1.592250598849096
1.62640375208795
1.888800318524035
1.331886523155428
0.8037897626135396
0.8011357416120531
0.8372219246215997
0.8949009216325035
0.9161263259056258
0.9066518069578968
0.8873527437689234
0.8912253397555917
0.8833200000914688
0.8953433831357004
0.8897137117597815
0.9059153939686599
0.9093563385755719
0.9422899465098846
0.9659303533043953
1.022176611732767
1.158979718598237
1.565740526712413
1.667319967061659
0.6396759791038321
0.08988070148277127
0.4003134108894374
0.6774078149204603
0.7186884728068371
0.734240633908582
0.7723690025135475
0.7874949318872025
0.8358475273095326
0.8637232909009523
0.9706761986918814
1.142964544293756
1.285793047179429
1.388241387590033
1.44018284976078
1.465926419649505
1.497429469432475
1.519050926240353
1.543081605533594
1.561662396117746
1.579445831280106
1.591443102383089
1.620669473809625
1.855728601089706
1.379626005740806
0.8521264898388765
0.823726552112196
0.8070981191333828
0.8458712520478779
0.8938220878442649
0.929213152122825
0.904893477045718
0.9023473275842393
0.8897902457726287
0.9001354209522378
0.8955444043678827
0.90916707671522
0.9071348368939239
0.933754881717976
0.9437568972458837
0.9932123756153597
1.027906296433988
1.167042294452918
1.534320639060485
1.693661760169307
0.7272546732376639
0.1257677573106118
0.4604038983896391
0.6590797169556336
0.6966944349379535
0.7111464774928733
0.7469773771336298
0.7627807467120185
0.8071730462151027
0.8226387964348597
0.8830924944835349
0.9621748838322546
1.156021670523796
1.281102653883274
1.39728543754601
1.437961222012897
1.471940212082274
1.496125839293917
1.52269111730001
1.542186866315471
1.56288814545991
1.579350750844654
1.591363238343855
1.61552898024596
1.823045650791984
1.412832467935696
0.8802536782486433
0.8838263337410949
0.8275785143418081
0.8154958967245204
0.8500548881026875
0.9068456685894249
0.9285809759874659
0.9205408057982356
0.9008281443519067
0.9080259090477257
0.8984475449817271
0.9161348830904182
0.9079979353187781
0.9329099985617252
0.9364486935622479
0.9719329893254578
0.9990696407887728
1.053555807690665
1.173163833255191
1.502651769614201
1.703178084789046
0.8044460206978807
0.1710371815727966
0.5218014114280669
0.6359889438124207
0.6763583848568447
0.6879513027865336
0.7242033093612634
0.7399531307923871
0.7792281160254185
0.7952285364660301
0.8433319213558086
0.8723952927969808
0.978610886914788
1.149825462021754
1.290744366768628
1.39348547808213
1.444349009835992
1.47079386579846
1.500160491727024
1.521702845232568
1.543816087899183
1.561704347173021
1.579537604693446
1.590679358385806
1.61087458751541
1.792042082459647
1.42896075057024
0.8452320558248493
0.910270830923576
0.882876478443101
0.8397099719875531
0.8217851812969926
0.8588596174471549
0.9065595527024937
0.942778216592332
0.918861429052876
0.9188726401442631
0.9051010268924549
0.9209812004785466
0.9148931792543304
0.9351360120947168
0.93459705006448
0.9646407099343004
0.9796968324772172
1.026272403099595
1.068299266188673
1.183825082891852
1.47415409290165
1.702985991811603
0.8682865258201229
0.2220195000352525
0.578828421466971
0.6172612643407486
0.6583151752464874
0.6674893987931974
0.7022042131486324
0.7165155095829919
0.7538866292102713
0.7699821045639598
0.8144431769817374
0.8316652622791338
0.8910138602359766
0.970407623334169
1.161896965402312
1.287058145235795
1.400942008749757
1.442952696254396
1.475268920677933
1.499223016804411
1.523519552922021
1.542755702330248
1.561044233199125
1.578232672992987
1.589319315633927
1.606356085551759
1.764226831640302
1.430104436000997
0.7705957742995028
0.8694623471581447
0.9100560051577249
0.9001804516811569
0.844380714444478
0.8302597476717976
0.8642668668227517
0.9205875986515428
0.9428663287490674
0.9369837299522954
0.9167681629914306
0.9284808370868979
0.9188914773246787
0.9414962676056293
0.9364879482336796
0.9641712795056238
0.9725053326017301
1.007092204703109
1.042963423276669
1.09043057671175
1.19145044046746
1.45001284478587
1.697447346443656
0.9151501075706922
0.2748457104039524
0.6299905235220671
0.6019489460525461
0.6416173762076901
0.6472894920665816
0.6826709057366087
0.6936433982906397
0.7314369329407404
0.7463063074588088
0.7864293234668562
0.8045230839412781
0.850820555813229
0.8821131515813063
0.9861698385830842
1.156339983924886
1.295374194426222
1.39804976493593
1.447726073371537
1.474562690143821
1.501429559841825
1.522479337555513
1.542392780851229
1.558956570497506
1.575758478614767
1.586814039047508
1.601772422072732
1.739090196540781
1.417901492697588
0.7162746065753794
0.7902036970342876
0.8760276159621018
0.9261886114245957
0.9011240239439368
0.8566865693922893
0.8377069110243015
0.8741197607239496
0.9216305093776377
0.9589481073747796
0.93572274565761
0.9391864590707261
0.9270135435385963
0.9461630733458092
0.9429521516729255
0.9666971126987473
0.9721528773444549
1.000532145571223
1.025341767935118
1.067191338307268
1.10602478226684
1.197645351229756
1.425156135751963
1.687200090429548
0.9496532058027013
0.3317594448413153
0.6774277980083703
0.5868675746031734
0.6254023012233966
0.6297748049446884
0.6646379571466763
0.6740131669567938
0.7095115945873247
0.7235273999468265
0.7614433857916411
0.7787269339268671
0.8217845402319196
0.8417314159757469
0.8986295440833432
0.9794382327230343
1.166932428201034
1.292500095367965
1.403617840049491
1.446871837023849
1.477301336824049
1.50057984191595
1.522379155056972
1.540487872432632
1.555922250265831
1.571688446112905
1.582923860288963
1.596935938722029
1.716913193704431
1.393681006499272
0.9222113771051481
0.7507119564265152
0.8023244127763068
0.8862362808978074
0.9281425244999423
0.9178300772781615
0.8622556579621249
0.8475700604012393
0.8811291756195522
0.9372802431715849
0.9600504833817806
0.9573867626342356
0.9385667075129025
0.9531079039760371
0.9474403869259244
0.9729980356931452
0.9758280046023101
1.000528771055581
1.0198816706195
1.050861551636806
1.084440740676215
1.121062941963184
1.200184608447907
1.402797320308451
1.672462407556324
0.9726997673248432
0.3872839412718235
0.7240252970622085
0.5722018252983991
0.6092334632787083
0.6146934005791376
0.6480947692874183
0.6540703806260766
0.6906550437025356
0.7012711135093924
0.739336989439305
0.754576778445024
0.7942702149164371
0.8143893723675486
0.8584361304702385
0.8921731752852979
0.9931184037739063
1.162541173808642
1.298903998346497
1.401148902991594
1.449820505785894
1.476713021457162
1.500950992740503
1.520693943230394
1.537724951336205
1.551591740724624
1.566060357209554
1.577874690524026
1.591426476385353
1.697257135640239
1.360314547968213
1.227544236083882
1.010208297414507
0.7546501517968791
0.8091155912969449
0.8961435717452679
0.9432881624732526
0.9201473235044167
0.8766796247847576
0.8565550182139422
0.893133533385015
0.9403282551853644
0.9795944786903275
0.958210267709011
0.9644181837074073
0.9551764408949152
0.977672304915214
0.9828014368155771
1.003509353193731
1.02032525756612
1.046315270153386
1.069389996928809
1.101206190375197
1.130116007668386
1.198609093810724
1.381261990490626
1.652157808594419
0.983148447058771
0.4365068601012411
0.7713500327639059
0.5584453264057674
0.5947167941503548
0.5993388994863341
0.6319641639668979
0.6371856371872273
0.6727793909912398
0.6820960107247065
0.7176510952593705
0.7324111682307516
0.7696913550512537
0.7881891549691792
0.8295547944410654
0.8523702559472943
0.9059899533102937
0.9885774606312002
1.170694494264383
1.296956099380869
1.404193205597677
1.448990323851649
1.477586163967551
1.499696503286326
1.518278596583583
1.533650590059015
1.546022997861257
1.558507923568007
1.571387922440056
1.584749812202409
1.679642945520596
1.32676800672982
1.337125767191643
1.325041361913848
0.9759616619418047
0.7718593259016543
0.825685693785013
0.9039606064075614
0.9475759706906148
0.9384351160223425
0.8835384872128706
0.8689341413861972
0.9024757750811845
0.9590935768349583
0.983380674532538
0.9830173765715872
0.9668202509380949
0.9846116133240748
0.9879333719802532
1.010075949397752
1.023995605480958
1.047114104164238
1.065595649419077
1.087784428018008
1.111668625539906
1.134729049973184
1.193962279750987
1.361625855049287
1.621153596623123
1.004643805253191
0.4811015713714549
0.8386632282086756
0.5458027109458107
0.5807127372938248
0.5845089788031281
0.6157772713837358
0.622278491702035
0.6556746603516793
0.6628842465722888
0.6991049037526534
0.7106234285861954
0.7476957020960946
0.7643168777424411
0.8024646421607152
0.8246603540697461
0.8659472659317321
0.9023199458620778
0.9992577871701742
1.1675898673817
1.300914611314836
1.402285251641433
1.449846106260043
1.476698186899371
1.497821209564712
1.514647642441218
1.528383110330267
1.539189909485326
1.549843955507605
1.563262543591143
1.576543647894385
1.66248103253705
1.35337644320695
1.309844749627705
1.407423038003458
1.276987186211933
1.032349422119973
0.7842936446786043
0.8303535920953197
0.9187997331890477
0.9633866363782473
0.9438296654049338
0.9021358049494204
0.8800890604773901
0.9178898140477231
0.965920120464707
1.006161462486947
0.9881908857142316
0.9961011988715273
0.9956611170574869
1.01454418600986
1.030475769715956
1.050475241937207
1.06668635819583
1.085023943115236
1.099948223605431
1.117627129007333
1.136191242959977
1.189382134685491
1.342634213961581
1.57417750729466
1.039662514886353
0.5082877429077417
0.7184896935733375
1.13244834528823
0.5337410344178474
0.5676983942452478
0.5706742738951951
0.6014640404964462
0.6064265198788815
0.6393685984530102
0.6460161314544199
0.6808563243687167
0.691542475101818
0.7260842685810344
0.7422116018387933
0.7781798981827937
0.7985412179188444
0.8374138515308422
0.8626982086866808
0.9130512255168222
0.9970332644977256
1.172792994318528
1.299500870842344
1.402864747129549
1.448695675646081
1.475190925842053
1.494765339888523
1.509901247254867
1.521740059373292
1.531032950394762
1.54001884798655
1.553792681152704
1.568113784974015
1.652941732265401
1.53067690665685
1.256358112487598
1.36370566550902
1.372370265067331
1.333823209170589
1.029668364065979
0.7982113591506517
0.8540434969165952
0.9253801461805236
0.9724444615629633
0.9630315014627704
0.9129753041745158
0.8971907796070935
0.9310398343145082
0.9878254423233976
1.014696830443116
1.015098726510802
1.008055047074462
1.022416951210633
1.035333223763066
1.05672820284866
1.069786808643957
1.086190772564422
1.098041629369339
1.1077601311464
1.120414873212446
1.137000298810781
1.184462500039091
1.327121327029185
1.525098021497706
1.083975241504814
0.6957629830628825
0.7036773630393004
1.10737807839708
0.5220035495770124
0.5552089019520779
0.5580976213280172
0.5874582288647198
0.5915486111625124
0.6233092007105439
0.6305603378566671
0.6637155361253482
0.6726217609058517
0.7076311205081135
0.7205077021030387
0.7563118737513556
0.7745204128392122
0.8107243017380088
0.8349916437574398
0.8733933447279848
0.911863854620548
1.004504220588173
1.17071221355242
1.301091498733451
1.400736326536296
1.446935978093658
1.472421103527907
1.490534810565483
1.503847280549139
1.513883439998784
1.521503255096961
1.529793042580878
1.543746155601254
1.553527415677094
1.613645264055117
1.553009193455046
1.211168948653412
1.297153528655477
1.33250428467423
1.413506848340845
1.310595609098342
1.061829357152595
0.8196861513727438
0.8579719983899188
0.9479621243243901
0.9883856068073924
0.9736640492510479
0.93703057521017
0.9110299539902074
0.9522866669074473
1.000607491288041
1.039315374047259
1.029557868438632
1.033857464726077
1.043349008169303
1.061272283070923
1.075624426834498
1.089314712062916
1.098957836107612
1.106763830775914
1.11242756531807
1.122684430705607
1.13629340465748
1.180897308516845
1.311845626687789
1.53278445355635
1.117847181494983
1.207321806645892
0.6355206578967122
0.6364991366350455
0.9379465060375931
1.288580792595934
1.085918355115146
0.5112754278801621
0.5439985704721562
0.5457831741286411
0.5743001968366226
0.5782174050981174
0.6090730795128586
0.6145586021249847
0.6475091782901828
0.6558188121108951
0.6890106060125821
0.7015026841225814
0.7347458951678294
0.7525576627461258
0.7867090686541884
0.808739577309029
0.8452223190440027
0.8726150429869906
0.9196020145746141
1.003993663806276
1.173047817177277
1.299454796718396
1.398239662227974
1.443963520390093
1.468393920401507
1.484901089337455
1.496389683899475
1.504465991594496
1.511454999634638
1.518665888658878
1.526604202415771
1.53848386823527
1.583606315251941
1.577651172930134
1.183401915053224
1.247784121881492
1.272612086538913
1.369807439630944
1.393872434589004
1.344104269979588
1.074432440143355
0.8298608619817845
0.8888099076025213
0.9529756450864175
1.00550216687264
0.992989571492483
0.9513142764816058
0.9340264100223542
0.969350253314295
1.02370159837815
1.056520748558552
1.054409619814977
1.054963967384478
1.068948459277307
1.079827246058395
1.094670923251757
1.102863699000665
1.107346674222564
1.112182128042903
1.116651992776892
1.123541154627098
1.136399896864993
1.177395970309945
1.312956217638279
1.53020686202145
1.365157678287905
1.10576750700021
1.159549585766492
0.7982369746533114
0.6247738866988284
0.9515493009315291
1.26408167644391
1.103921381708962
0.5032790312186948
0.532015218019383
0.5340977606656597
0.5614411854718897
0.5652424171344615
0.5949270084669336
0.6001920950332845
0.6313638905155177
0.6401834744190097
0.6719446523198175
0.6828110372090552
0.7163334284366299
0.7308640761757829
0.7649418161795301
0.7847488630599591
0.8188216614454021
0.8448785173588584
0.8804091433798881
0.920336681943524
1.008564924066625
1.171329880353747
1.298281324265298
1.394892675831864
1.439568159554574
1.462815048491976
1.477596343720783
1.487184716588752
1.494443275292749
1.499978585280675
1.503176950453392
1.528991885911111
1.505487959466929
1.535372301991308
1.585639795629293
1.579559211773371
1.158630825463673
1.219165301693859
1.225787428776374
1.304574079953875
1.343565787541058
1.423240776730563
1.330994914963784
1.089261754179923
0.8574271928873827
0.894218554501461
0.9838098170992834
1.017613306294618
1.012928960860378
0.9752114358284805
0.9523901340452742
0.9923611945756379
1.04406512507753
1.079640787062779
1.075565606437988
1.079991533104148
1.087119543420558
1.098655985757705
1.107351477072057
1.112022616296674
1.11325532663897
1.117253403882955
1.119377372731452
1.125877930471462
1.134987967222995
1.176649733198708
1.258523707486567
1.473774371401476
1.342167432905421
1.071650206304036
1.130480292984605
1.283402144899863
0.7482371445849874
0.8115864406792215
0.6422849899626698
1.079131538342958
1.445775105497072
1.135629122436864
0.4937438050305872
0.5192814741737288
0.5235292363995235
0.5496556964078105
0.5525845124166937
0.5818975997179723
0.586208616778257
0.6170219520577769
0.6240055260595446
0.6558261745682722
0.6659001847781941
0.6974109976079295
0.712173182783954
0.743383734471516
0.762987013144665
0.7949172757732841
0.8186604153321028
0.852465186190368
0.8814724788977265
0.9253466898295911
1.008947285703996
1.170912790539591
1.295004425425823
1.389203559067843
1.433211161474675
1.455367950123749
1.468369937222118
1.477213362745412
1.482419608945169
1.484183558990344
1.486634616429915
1.513033449847262
1.492590082130942
1.52471439549085
1.57024770124976
1.578137310388953
1.132861066869751
1.19046254145471
1.198259643205003
1.255906263381618
1.282340523121147
1.380570861722715
1.409257499762091
1.354710381083662
1.101621809374554
0.8675338886964867
0.9236705220611473
0.9893569792721013
1.043605543534637
1.027686957149438
0.9991550864034257
0.9755455857695271
1.014280417582132
1.066779544285865
1.099922630883803
1.099388098974107
1.097503198136956
1.105660866664607
1.111264068071481
1.116021555155273
1.1180433855877
1.118786352320862
1.1205643807137
1.123335617859006
1.12666443793345
1.139831224044373
1.189940047260479
1.158807459373906
1.273644509039881
1.341634631928883
1.477724737325008
1.064831043929331
1.067229397935191
1.302847581308392
0.8195627372668816
0.8831241091502365
0.6656888440082334
1.09684146126764
1.280526862377902
1.130510675408138
0.478410676193762
0.507987066555747
0.5142552042403368
0.5374561557196513
0.5411964561697018
0.5689766680005766
0.5736286455587968
0.6028273771555028
0.609576464425708
0.639646052276413
0.6503374057638334
0.6803941472256466
0.6932474763123809
0.7248934367801961
0.7413507848080473
0.7731553789138698
0.7947670190879351
0.8262229966676586
0.8536999742838054
0.8866150822708727
0.9268832884445496
1.011408884471764
1.168485880176754
1.291131393446707
1.381056864042767
1.424980365609461
1.44582222805657
1.458211292034622
1.463950388425855
1.465803201878626
1.467807062210651
1.479329773827242
1.515804405206329
1.495491844414325
1.480243025844742
1.523756958839753
1.575596563784684
1.52801920528485
1.579093149476643
1.105820883892204
1.160216760175099
1.174404722485718
1.227196187352569
1.234518607332845
1.315209299465683
1.358361766611522
1.433527076104421
1.346634882927293
1.116550571703549
0.8913460594347968
0.934103279882214
1.019224447276175
1.053986727297354
1.052086142682695
1.018598821278611
0.9981636234009605
1.036854057644876
1.086187899045392
1.121273139996632
1.115826525829459
1.115545323487252
1.11795942992801
1.119948755515887
1.121813603987729
1.123625185411035
1.122670216920425
1.12465539889956
1.125273493407384
1.132740037294177
1.136245680801434
1.173751618610136
1.157759854683162
1.261037742668149
1.299355006738609
1.439813330549937
1.076819639241611
1.172774385497405
1.39173452743529
1.030835416243596
0.7252508394233755
0.7796319316630661
1.058033186194903
1.113067792214841
1.399197370562314
0.4682021928864927
0.4974803875653682
0.5022429053504356
0.5251152047430873
0.5303932606773535
0.5568744804494847
0.5610018163871766
0.5896306833737375
0.5956094306375876
0.6253086642914183
0.6339991042270339
0.6643153910948082
0.6764810691490845
0.7057925512024654
0.7227095848260839
0.751542808429765
0.7730186645116177
0.8023720831916635
0.8275602711125738
0.858788529100125
0.8884722010038277
0.9300214528970119
1.011698650039672
1.165574816848178
1.285966242200695
1.372575043316602
1.414791110452822
1.434699889956411
1.44390238852225
1.445600535574245
1.465268341529944
1.447759651149776
1.461542639292343
1.46359054711409
1.506287262008666
1.48829906627702
1.472647684614392
1.511746024715992
1.557493105413011
1.516348625691012
1.580873128114435
1.077982343137114
1.129316246266901
1.147839884115529
1.198322921911755
1.206655100477648
1.26704582026833
1.294523930974647
1.391274696603501
1.424289583039263
1.367230483387601
1.121494970378561
0.905257339577235
0.9547189571766675
1.030567330908164
1.07700192425776
1.068717717350853
1.039527300631402
1.020627498081186
1.054226201930359
1.106239192343075
1.135613057865052
1.132920445404754
1.127377570655505
1.126563765701541
1.125785002879131
1.127206741397476
1.127375161206952
1.12830769150366
1.127131140215907
1.132615279460505
1.133647147095958
1.133338214649148
1.136424515120294
1.171235439400788
1.1461136576605
1.20985685966345
1.293448460443921
1.318457617191043
1.098096734888273
1.115688454022344
1.393212983494384
1.058014783625953
0.7341580167266303
0.8073797448789484
1.092508414019373
1.131918949336217
1.435708896411987
0.4576909499797767
0.4868134666672828
0.490254389496193
0.5135955864496448
0.5205866180728365
0.5443290384530282
0.5493981377176645
0.5766152734297201
0.5827657460096608
0.6110678292785602
0.6195662254704302
0.6481532109320333
0.6605435956055276
0.6888560374125812
0.7037322104244019
0.7329879574392461
0.7513952040727081
0.7806174091483519
0.8037386654902654
0.8326640863898305
0.8607335066352458
0.8918831401471152
0.9315905436924663
1.012544880217086
1.161158062141768
1.279270386314846
1.361901747412702
1.402308665850692
1.418265968888909
1.42845289082093
1.429937087176283
1.453538182340578
1.443122481147187
1.453889606387421
1.463558325361554
1.492252955995933
1.475587868954347
1.471384858498876
1.504950205296897
1.521359069500503
1.57048872122016
1.505276439370318
1.556754387911139
1.045758106471456
1.101542895057579
1.120049676088688
1.167753816642193
1.182929193919293
1.237922700045347
1.247244701438527
1.326037573806909
1.373134488951423
1.4452410659134
1.362726214819322
1.13933013658024
0.9194565511028934
0.9706563129516114
1.047837899416964
1.093093218591017
1.084396451443379
1.059184800263469
1.036863719157662
1.073328765213746
1.119741883264479
1.150573789534842
1.143871288952283
1.135829049548716
1.132495180634011
1.131270019881204
1.130873982700848
1.13217924616777
1.131520089464764
1.135408506110702
1.135215454231127
1.133913775649219
1.133758561349209
1.135097406427245
1.15359176221651
1.143672525121172
1.200847189239903
1.238014241093619
1.271324806851026
1.102042799270648
1.155555304162423
1.338704741695583
1.396196691160193
1.051773528790494
0.8701212680430968
0.7571635292714826
1.018444686443835