/*--------------------------------*- C++ -*----------------------------------*\
| =========                 |                                                 |
| \\      /  F ield         | OpenFOAM: The Open Source CFD Toolbox           |
|  \\    /   O peration     | Version:  v1912                                 |
|   \\  /    A nd           | Website:  www.openfoam.com                      |
|    \\/     M anipulation  |                                                 |
\*---------------------------------------------------------------------------*/
FoamFile
{
    version     2.0;
    format      ascii;
    class       volScalarField;
    location    "4000";
    object      nut;
}
// * * * * * * * * * * * * * * * * * * * * * * * * * * * * * * * * * * * * * //

dimensions      [0 2 -1 0 0 0 0];


internalField   nonuniform List<scalar> 
18230
(
3.658237433801614e-08
9.144509437980775e-08
1.370004003463965e-07
4.046523350587714e-06
4.542602910721291e-10
2.747064183783056e-07
5.225175099061537e-08
3.771139197938775e-06
5.483537793091165e-06
1.207116009232666e-09
7.629506287221783e-08
7.298842898414005e-07
1.725145352047037e-09
4.216419765432947e-07
7.941539135715744e-06
6.732013354474156e-06
1.792049899562369e-09
1.106406434066249e-06
4.011832041303964e-07
1.384493690109362e-06
3.323409151541703e-09
4.160770606763372e-07
8.361922593676535e-07
1.16014164754884e-05
9.407799982249835e-06
1.671535950580648e-09
6.793740838351018e-07
1.109117469221786e-06
4.209146852415904e-07
1.892647724752902e-06
6.622807564106828e-09
2.132578814604859e-06
8.2910435122294e-07
1.145841780116864e-06
1.213238936692619e-05
1.238939712151023e-05
2.197412140990991e-09
1.032184514590594e-06
2.00139871454238e-06
2.037532907270773e-06
4.944852466055767e-07
2.284943145514497e-06
1.174740103390279e-08
2.449438185157265e-06
4.539788796987065e-06
1.081443851926565e-06
1.534836234341627e-06
1.074681893481149e-05
1.636709816544778e-05
2.215626975651699e-09
1.13305790151966e-06
2.020327777634653e-06
2.21635718288856e-06
1.611147695085017e-06
5.643027253951533e-07
2.640923481082977e-06
1.233243409133367e-08
2.913646678690864e-06
7.687426857682533e-06
5.669958194143844e-06
1.361257221037277e-06
1.921330121913914e-06
1.406190442941834e-05
1.794913950741351e-05
1.899775816862381e-09
1.153588349602107e-06
2.076195912302264e-06
1.984610148094828e-06
4.373827197021228e-06
2.174109921167544e-06
6.278200407837938e-07
3.019056587879729e-06
1.446280973009991e-08
3.89414664982512e-06
9.155690509326351e-06
1.241168031831173e-05
5.689042622929057e-06
1.734400057465485e-06
2.452617603916148e-06
1.683615592618525e-05
1.924038616729321e-05
1.933257664065294e-09
1.098917359420075e-06
2.064477265647697e-06
2.07396826201034e-06
4.543731912515244e-06
6.362620657183905e-06
2.016659301278789e-06
7.501666769107741e-07
3.447082755451011e-06
1.304640878790596e-08
4.257433823274803e-06
9.057048615586202e-06
1.496338150846363e-05
1.552695178848628e-05
6.876012259047977e-06
2.107081702137461e-06
3.109119343612055e-06
1.890752739758851e-05
1.778317730325714e-05
1.904866404493478e-09
1.034875878496449e-06
2.08960985388942e-06
2.028041680201824e-06
4.827081412828036e-06
4.305084534568869e-06
9.66806249004244e-06
2.436480399610454e-06
8.931750888180093e-07
3.899920377829382e-06
1.283587430001289e-08
4.147036349059588e-06
9.257859195650522e-06
1.512100839796597e-05
2.197200539083168e-05
1.751248883653789e-05
7.852341117002331e-06
2.537074654556659e-06
4.012148455960674e-06
1.823866426840506e-05
1.677180551015413e-05
1.782768412980766e-09
1.013886802976322e-06
2.134932878459563e-06
1.930836147755569e-06
4.979800910701221e-06
4.449636162518628e-06
9.900647996970137e-06
1.33395805481008e-05
2.603300766798765e-06
1.040195366934763e-06
4.405771124002123e-06
1.420575825783002e-08
3.989481113614616e-06
9.093126823224004e-06
1.517629000679432e-05
2.225336132740013e-05
3.031075711276804e-05
2.069385604313152e-05
1.094754504292342e-05
3.134744039858188e-06
5.134904705236193e-06
1.907273231583626e-05
1.834811996708981e-05
1.586916818400754e-09
9.709865074846091e-07
2.226845069216278e-06
2.221424405691214e-06
5.125399021154095e-06
4.572463717012137e-06
1.032970284627984e-05
1.055367167552468e-05
1.788566375185721e-05
3.063954650243029e-06
1.246386549038648e-06
4.974742207249546e-06
1.395640094441517e-08
4.090301006433748e-06
8.868872719189491e-06
1.497071144494976e-05
2.220867596871411e-05
3.059114798739809e-05
4.001010374517551e-05
2.296767403611621e-05
1.293381803249983e-05
3.857084828417014e-06
6.475447516044992e-06
2.23256229402117e-05
2.129883351690693e-05
1.689357539080953e-09
9.171906082052258e-07
2.356778168083938e-06
2.309133719615992e-06
5.394767437691239e-06
4.803733032199659e-06
1.059988535642355e-05
1.054706285580079e-05
1.77670141525956e-05
2.269957039990978e-05
3.30275897347111e-06
1.508260330491434e-06
5.634388696266041e-06
1.294458579072068e-08
4.124886644900134e-06
9.02624130235382e-06
1.472912465176841e-05
2.205475292955583e-05
3.061712397766285e-05
4.039033141167411e-05
5.104412439802216e-05
2.573551661282238e-05
1.520926716023634e-05
4.65948758269626e-06
8.137737558606226e-06
2.648487463388292e-05
1.88710391216685e-05
1.849183372703032e-09
1.220763006291569e-06
2.666814243174331e-06
2.476031617761862e-06
5.691698420004575e-06
5.186566641143891e-06
1.088255761616629e-05
1.060916914033251e-05
1.831854169128627e-05
2.238804431740476e-05
2.809305314345605e-05
3.923586091302577e-06
1.845592931908387e-06
6.451775314056185e-06
1.431032559896587e-08
3.989148152457392e-06
8.956993556360693e-06
1.491086226447885e-05
2.186603708789778e-05
3.048171734551425e-05
4.046287671836764e-05
5.173742500707922e-05
6.355496136357071e-05
2.875191602335276e-05
1.84437436337858e-05
5.601086287864104e-06
1.024063916372227e-05
2.747783545848758e-05
1.685747624128211e-05
2.546277058613792e-09
1.336188063654413e-06
3.287949871643745e-06
2.535935975587635e-06
6.086189106163158e-06
5.120332556529302e-06
1.12776174370131e-05
1.113417949867868e-05
1.863171848762604e-05
2.299494748312222e-05
2.744800292951198e-05
3.430768534431526e-05
4.591721200034546e-06
2.287605956880862e-06
7.47263691274613e-06
1.377984514441352e-08
4.265430480630759e-06
8.754355311100997e-06
1.476234775683735e-05
2.20128134109397e-05
3.032617159947329e-05
4.032855342219865e-05
5.174606108372168e-05
6.439173614133464e-05
7.752059363857275e-05
3.282602710872239e-05
2.070472043301664e-05
6.928021065427589e-06
1.291963111272193e-05
2.876129034607584e-05
1.572247075671225e-05
3.694314091127669e-09
1.832852532985176e-06
3.634069107762823e-06
5.151852064769996e-06
6.658833286922534e-06
5.341508610998606e-06
1.170463072653048e-05
1.074208814776391e-05
1.911197980816736e-05
2.333363636232585e-05
2.820078817786706e-05
3.350237013998945e-05
4.080082258130102e-05
5.522221474054708e-06
2.880904713622874e-06
8.794499897392782e-06
1.36408448100112e-08
4.274407992222031e-06
8.974465809836904e-06
1.450755356590223e-05
2.189130871408127e-05
3.040039868985804e-05
4.012099198838019e-05
5.152589543723774e-05
6.444944094509731e-05
7.840369299984981e-05
9.262648069140614e-05
3.694197315316143e-05
2.434860403328812e-05
8.861192225830262e-06
1.634458448785914e-05
3.124524541508378e-05
1.578329810546058e-05
3.594341503198671e-09
2.132983595567447e-06
4.024856783906069e-06
5.941538318952573e-06
7.690520256053633e-06
6.280054086650161e-06
1.219209210177072e-05
1.1417031420882e-05
1.955213170818962e-05
2.387895376444057e-05
2.857079959964857e-05
3.441897754361307e-05
4.060945649811027e-05
4.852519472383889e-05
6.624232425263517e-06
3.6570652210552e-06
1.046364103788307e-05
1.376350782483563e-08
4.137183572837463e-06
9.042759825947053e-06
1.474676892707837e-05
2.153578624842424e-05
3.030904423387149e-05
4.012924906718595e-05
5.127011146509971e-05
6.413591029670638e-05
7.848516268396605e-05
9.367670341600835e-05
0.0001085675045383071
4.204526711975127e-05
2.914225380862411e-05
1.131902794504817e-05
2.106500689636487e-05
3.516786707165678e-05
1.681210332866036e-05
3.829056512583963e-09
1.977324716381376e-06
4.131792561539041e-06
6.493281248429845e-06
8.670640523778475e-06
7.048107879260512e-06
1.298765923466163e-05
1.202676229394637e-05
2.00866419606216e-05
2.438662409125745e-05
2.920122256947469e-05
3.488864322366009e-05
4.170946056884731e-05
4.940362918965561e-05
5.308935673141243e-05
7.986776410366916e-06
4.710946632005776e-06
1.258101213727679e-05
1.296129735303921e-08
4.354929193084063e-06
8.83642186060097e-06
1.470239610652552e-05
2.174561152017884e-05
2.983406169729996e-05
4.001446019736149e-05
5.125556042364466e-05
6.38700865372519e-05
7.818121500990344e-05
9.370531584220791e-05
0.0001097332976321398
0.0001248854532463237
4.768740804911315e-05
3.370807339593208e-05
1.508892026022612e-05
2.720175781231864e-05
4.093373914690722e-05
1.806645203877438e-05
4.208016226447278e-09
1.958341084640789e-06
3.89892633907389e-06
6.489365958886383e-06
9.314499696926572e-06
1.185352250825859e-05
1.433135247594204e-05
1.253422667040043e-05
2.061162069251918e-05
2.467145264898153e-05
2.982975187650956e-05
3.563570434191271e-05
4.230076280890998e-05
5.067095135889044e-05
6.016610930245562e-05
6.450952757033399e-05
9.670367839046753e-06
6.138762249115335e-06
1.50291510617722e-05
1.427195434034558e-08
4.205398344672543e-06
9.131437808664499e-06
1.455622400885371e-05
2.17584089360309e-05
3.000652630063507e-05
3.95896084128817e-05
5.107517738065526e-05
6.382740231733092e-05
7.772640992887969e-05
9.079871134433915e-05
0.0001096161570320106
0.0001250387551871105
0.0001411845895015465
5.224253624989787e-05
3.851539265143827e-05
1.983854002832491e-05
3.545939390192331e-05
4.7917358095659e-05
1.98593723326209e-05
4.908852260137997e-09
2.058508293578716e-06
4.031249279104385e-06
5.638601379833501e-06
9.117502873126164e-06
1.25079698648089e-05
1.541201834671352e-05
1.546060974129474e-05
2.14956687218551e-05
2.528686141597799e-05
3.051193371885239e-05
3.637441155111383e-05
4.318207729344096e-05
5.142944677642647e-05
6.16087426146489e-05
7.375831886849527e-05
7.104817707681793e-05
1.172732870803641e-05
8.032462359943365e-06
1.856791935481261e-05
1.655437432985106e-08
4.36611846173753e-06
9.074987129465264e-06
1.502757576286793e-05
2.148318366205815e-05
3.012072765175363e-05
3.972053775347856e-05
5.062239413388629e-05
6.349382568065931e-05
7.765599069095191e-05
9.16217293678707e-05
0.0001093879306134135
0.0001190912656772012
0.0001428965054237691
0.0001571293513405721
6.00786283649796e-05
4.15874237480917e-05
2.508686619360812e-05
4.651643013940675e-05
5.585261567015566e-05
2.228338222096946e-05
5.992328126712357e-09
2.223465506678377e-06
4.219269524181039e-06
5.692220893133836e-06
9.006342623623663e-06
9.681766193315917e-06
1.621307043423725e-05
1.732853113190867e-05
2.305000134759577e-05
2.593132103155591e-05
3.128925887029827e-05
3.720085973405681e-05
4.411730875237992e-05
5.250793051931441e-05
6.262048501876443e-05
7.539551799183954e-05
9.061671868227853e-05
8.215717526115255e-05
1.42312010386571e-05
1.043398679696803e-05
2.3597582426806e-05
1.731844155845878e-08
4.606847788579538e-06
9.498545018713533e-06
1.502351785184559e-05
2.200643452226585e-05
2.970098630584926e-05
3.965715801121244e-05
5.074103210097003e-05
6.300059937250918e-05
7.721288581925194e-05
9.052319317838948e-05
0.0001088232443230975
0.0001184965892590937
0.0001323775792620048
0.0001588176461470744
0.0001702534358289178
6.319442211746391e-05
4.370922591569558e-05
3.241762291574474e-05
5.94810007708337e-05
6.479204484680716e-05
2.547865735106234e-05
4.89538309744386e-09
3.018517893307036e-06
4.567425247971445e-06
6.572797044449748e-06
9.546131060322036e-06
8.456177452461887e-06
1.647207879366287e-05
1.698614621387867e-05
2.478240982311659e-05
2.589593108384133e-05
3.262940148451717e-05
3.820804704259424e-05
4.512984331657047e-05
5.368443506385393e-05
6.393775301306731e-05
7.671499131136448e-05
9.257931725655204e-05
0.000111751243893558
9.318640850882301e-05
1.746222934004531e-05
1.379398995076517e-05
3.120960983065538e-05
1.653829501906314e-08
4.634052085151045e-06
9.656414659504841e-06
1.552926974059854e-05
2.208993475090872e-05
3.016497582653225e-05
3.922051383474441e-05
5.059484353500606e-05
6.305507361371598e-05
7.665629484740321e-05
9.211932711192167e-05
0.0001085717966778347
0.0001164010616403721
0.0001258905877839411
0.0001588648490982915
0.0001589637607040053
0.0001860964659505617
7.218023259337016e-05
4.491033461329896e-05
4.161554570535885e-05
7.501613189292848e-05
7.551342267454971e-05
2.960513260883155e-05
6.086844593939024e-09
2.317243908281043e-06
5.151094968637929e-06
7.358093480168751e-06
9.989975485607501e-06
9.890113299850664e-06
1.664386276090754e-05
1.572125314880073e-05
2.619931784242634e-05
2.752419024224808e-05
3.519050044117864e-05
3.985886964531003e-05
4.636941430358384e-05
5.498609392281909e-05
6.53741147377125e-05
7.834845858739824e-05
9.428983916103349e-05
0.0001092241418504057
0.0001312453140937255
0.0001090381078140271
2.176000558992663e-05
1.870443742183562e-05
3.882003113588261e-05
1.568934202110667e-08
4.342877379266938e-06
9.316404031265692e-06
1.548186358124509e-05
2.257919434761241e-05
3.033772564609052e-05
3.960029404252109e-05
5.012330367550982e-05
6.278382930060521e-05
7.654531502170797e-05
9.13520952512831e-05
0.0001050935978969556
0.0001225363499112667
0.0001227874511785217
0.0001585706810777475
0.0001483201667967983
0.0001880862816028489
0.0001869959812833735
7.381206423652475e-05
4.476726900412444e-05
5.030556813037563e-05
9.307386960994808e-05
8.702188590700217e-05
3.458280104481792e-05
4.967814159566328e-09
3.027010817535577e-06
4.574346254611475e-06
7.722867660610741e-06
1.050681479188106e-05
1.097541806796144e-05
1.740307843757298e-05
1.520327753756163e-05
2.687640552348563e-05
2.59161295473758e-05
3.808496386934967e-05
4.308086413224599e-05
4.838880173322974e-05
5.651554658241914e-05
6.70593905157233e-05
8.014394749403101e-05
9.631594707757911e-05
0.0001132294200220539
0.0001122759447100467
0.0001269621511296217
0.0001220983003610414
2.722914762206338e-05
2.610266473095326e-05
3.347472475988348e-05
1.647248320235806e-08
4.309444006798376e-06
8.513626767108886e-06
1.469679757248124e-05
2.224332907468858e-05
3.071210614772896e-05
3.970056199567933e-05
5.026217088383656e-05
6.211079794282192e-05
7.56009185320554e-05
9.091853086418108e-05
9.88797245807917e-05
0.0001239853482618352
0.0001173873698551013
0.0001577863144713789
0.0001471326897084263
0.0001882567090381807
0.0001710780028643769
0.0002087922027353719
7.32183649490305e-05
4.287069498606881e-05
5.682779216434448e-05
0.0001167275159143239
9.852405756308929e-05
4.046694002359132e-05
5.053637205296575e-09
2.055648314447608e-06
5.06086566792963e-06
7.195044616188078e-06
1.067897233512579e-05
1.276231375808878e-05
1.818873127822679e-05
1.531527803128902e-05
2.74784860485092e-05
2.370682929001838e-05
4.060656528042049e-05
4.611552135984484e-05
5.252651195924168e-05
5.906702321762053e-05
6.891598639990058e-05
8.227911823092673e-05
9.855509471733256e-05
0.000118892328903151
0.0001203648469237249
0.0001116236564645109
0.0001222622813824369
0.0001302487253261477
3.412949176028067e-05
3.655254710565391e-05
2.780511534726009e-05
1.738546492524487e-08
4.346694196458369e-06
8.477626829062592e-06
1.350592435687122e-05
2.096889803876994e-05
2.987414363319017e-05
3.98038556926368e-05
5.00885042238702e-05
6.191498142780346e-05
7.229148188055335e-05
9.0444450884927e-05
9.281772320952093e-05
0.000123296979090512
0.0001191964648559797
0.0001565718397165064
0.0001401378121808592
0.0001878664159363997
0.0001643796087889881
0.0002043193276208976
0.0002031808958775421
6.550771286051692e-05
3.84887118620145e-05
5.978366583906277e-05
0.0001412535122061523
0.0001087658131461567
4.736579354631655e-05
5.352580526567281e-09
2.035822684068797e-06
4.088581594239004e-06
6.781383036084044e-06
1.018369151747963e-05
1.213588651149882e-05
1.853186711201233e-05
1.694586205122071e-05
2.857601341217548e-05
2.349288927178024e-05
4.209566449561001e-05
3.894385851298576e-05
5.752223023901662e-05
6.42894103457203e-05
7.212510337947449e-05
8.467332628430243e-05
0.0001011170890260712
0.000121730534931623
0.000130040079043669
0.0001206989714573503
0.0001112524290547145
0.0001161901592324504
0.0001320466036709156
4.221960941951227e-05
5.065557574436569e-05
2.472115799642446e-05
1.603744271813806e-08
4.313053443445696e-06
8.5012810967112e-06
1.338769681630408e-05
1.920487993832128e-05
2.797893459057631e-05
3.822373548076095e-05
4.965327280786054e-05
6.119657047073138e-05
7.400313257814699e-05
8.917424472141032e-05
9.35326126645949e-05
0.00012276988403065
0.0001168766290627905
0.0001559332449609721
0.0001332272186808188
0.000186972122903638
0.0001563489389741229
0.0001898182217332142
0.0001916578706770188
0.000197819067600941
5.628950298196925e-05
3.28134068683734e-05
5.782409404420977e-05
0.0001643227565979911
0.0001192873443892065
5.522996829414352e-05
5.788296351764173e-09
2.058672952449556e-06
4.113762091352819e-06
6.24397190296472e-06
1.032971241908296e-05
1.127349488913284e-05
1.842837468977366e-05
1.818605678490941e-05
2.93911128024786e-05
2.498857950000307e-05
4.301403182175403e-05
3.741472345968068e-05
6.20522449575406e-05
7.061623913094874e-05
7.872038075630759e-05
8.86130069347796e-05
0.0001042137875389122
0.0001248389337056807
0.0001482271099320185
0.0001310295047512437
0.0001222738715557642
0.0001117849383757661
0.0001124325724892272
0.0001320263823147848
5.140787243674994e-05
6.630663195009617e-05
2.434730241402044e-05
1.140913227394462e-08
3.61344148888037e-06
8.263612683888579e-06
1.316704691086665e-05
1.881709804568922e-05
2.49840954963073e-05
3.55608247468353e-05
4.720562535727137e-05
6.00728896394662e-05
7.247779390653167e-05
8.742433021692146e-05
9.199461446208314e-05
0.000121532394109299
0.0001184097037663061
0.0001547752459326316
0.0001315716890972852
0.0001845301471754582
0.0001522162313726024
0.000177552443688578
0.0001791618019599203
0.0002116176770348234
0.0001781539969804906
4.741914194175674e-05
2.771075258323156e-05
5.483090794306677e-05
0.0001900850948585991
0.0001302250867117719
6.357490907332746e-05
5.909267900968687e-09
2.151545308171531e-06
4.147253979419601e-06
6.009841215558149e-06
9.47923464134722e-06
1.080446661522997e-05
1.801842570752399e-05
1.738217199400952e-05
2.946693539131898e-05
2.701468902255364e-05
4.419250825415369e-05
3.69976559221818e-05
6.440271678558383e-05
6.06937522724793e-05
8.685438909540729e-05
9.682207225629421e-05
0.0001090600853675454
0.0001286873501960577
0.000153916232426493
0.0001501652821783929
0.0001339733436463425
0.0001237458190421277
0.0001140056433761753
0.0001109316572447958
0.0001299585049106917
6.101033368582249e-05
7.694155717439581e-05
2.605910686964733e-05
6.768144040081434e-09
2.578417509626649e-06
6.569092548573855e-06
1.235033280432215e-05
1.830435998186995e-05
2.454239294105219e-05
3.261020589040271e-05
4.24897634223157e-05
5.666342437164122e-05
7.098119323284893e-05
8.51034140607329e-05
9.293122380357923e-05
0.0001186152628887443
0.000118011779669929
0.0001533183465624755
0.0001289785990490301
0.0001817091092822718
0.0001508868706632669
0.000171588847390593
0.0001678634639947887
0.0001955525353961874
0.0002204870208453594
0.0001521776607583987
4.1899365506279e-05
2.419480311007066e-05
5.242111636390247e-05
0.0002224275514719551
0.0001408471807799389
7.448013673961741e-05
6.053658883627926e-09
2.15697959571604e-06
4.203323858974132e-06
6.011810744212541e-06
9.633689005180088e-06
9.991489906860567e-06
1.782439249622323e-05
1.686084237180726e-05
2.931325768136686e-05
2.703056080917272e-05
4.476717813928201e-05
3.953654289481873e-05
6.551192038944526e-05
5.871090881705559e-05
9.433709914785212e-05
0.0001069032835869118
0.0001192535666116928
0.000134727020698046
0.0001586210586889066
0.0001750538020017467
0.0001546239626169226
0.0001362178940093321
0.0001267161789424237
0.0001185351785185871
0.0001131135503028417
0.0001288174750264862
7.079367131382788e-05
7.924351800606826e-05
3.002741006435686e-05
3.254650994030105e-09
1.919989712074964e-06
4.682774638241329e-06
8.34639859229664e-06
1.663305890497881e-05
2.381214089458477e-05
3.123013340373271e-05
3.522140260299351e-05
4.99274555363302e-05
6.635100690700978e-05
8.197072919280514e-05
9.028019633437977e-05
0.0001144669222325757
0.0001131499117572109
0.0001510963044539168
0.0001288860887147088
0.0001810743492678465
0.0001511374906502776
0.0001670443885596516
0.0001620922919363945
0.0001797074066706656
0.0002017712896603143
0.000253158319471745
0.0001329998603206594
4.131222182979071e-05
2.316683715045984e-05
5.19567081583866e-05
0.0002601121307435021
0.0001564475597683519
7.350539062048795e-05
6.193480045053288e-09
2.157779030248522e-06
4.165220904489772e-06
6.229282508522804e-06
9.792969867083404e-06
1.003394556084986e-05
1.734188838284904e-05
1.668366882111709e-05
2.901966946266879e-05
2.711225498643087e-05
4.492996876453988e-05
4.035497337000858e-05
6.660907065983004e-05
5.949519097221291e-05
9.739628322224286e-05
9.863000281787736e-05
0.0001319109917423692
0.000147436225821802
0.0001578011252571468
0.0001807840200254727
0.0001770990731449271
0.000156235534915411
0.0001400007362477801
0.000131640586532113
0.0001258247789780896
0.0001197157430473643
0.0001318006031641003
8.220224517120343e-05
7.933894161546032e-05
2.844719744838793e-05
2.852753631109853e-09
1.397146179862879e-06
3.875272457129101e-06
3.791034829528585e-06
1.240302901888935e-05
1.993042566323564e-05
2.929855854599455e-05
3.36426186638731e-05
4.794896822693048e-05
5.201846319835325e-05
7.273768631565474e-05
8.737167498827456e-05
0.0001094236762705113
0.0001118211017945412
0.0001465661188467543
0.0001261105494410979
0.0001743238027490917
0.0001506520593245584
0.0001660269546296889
0.0001606821567413111
0.000173514363780124
0.0001819273687032537
0.0002557131602907693
0.0003269965215053238
0.0001296061577652147
4.472048564194285e-05
2.475468141556214e-05
5.528183840018924e-05
0.0003042644960119971
0.0001423039771582503
9.254110221658384e-05
0.000142400393756672
6.266635457800205e-09
2.160610059399694e-06
4.194415993931851e-06
6.125713989351444e-06
9.833421242279306e-06
1.057056919015587e-05
1.756407727251538e-05
1.606002149539313e-05
2.867961362959162e-05
2.711425682458222e-05
4.47171132274306e-05
4.145969428651857e-05
6.713732078471168e-05
6.129102974866765e-05
9.864189213343152e-05
9.432808127660718e-05
0.000143340661445127
0.0001630497824996884
0.0001818488226040155
0.0001615528083928778
0.0001767358552317862
0.0001736178752876594
0.0001581533873873606
0.0001454202273029808
0.0001385474257118622
0.0001346331039970165
0.0001293110690728209
0.0001429241737789269
9.102371877045753e-05
8.255628576590329e-05
3.098700584769567e-05
3.076601316396198e-09
1.609809208815998e-06
3.412100563761751e-06
2.930412113862148e-06
8.109995579113563e-06
1.31017310032561e-05
2.360205504983607e-05
3.194817795788432e-05
4.462035474400445e-05
4.659431854248581e-05
5.934932431504498e-05
8.1046319340265e-05
9.330717781054711e-05
0.0001057707034856204
0.0001399360083128452
0.0001254087728026697
0.000171430919204583
0.0001475202830436614
0.0001630274235652754
0.0001601764947357713
0.0001705260008865231
0.0001773927707272728
0.0002369793366581192
0.0003321303840302262
0.0003650275548408357
0.0001383318762200616
5.194971292012579e-05
2.909779855862058e-05
7.275305633871268e-05
0.0003245718620463095
0.0002737524659714966
8.103625488794098e-05
0.0001974846243304689
6.155653058579014e-09
2.15566392328903e-06
4.24992198454274e-06
6.036322231568784e-06
9.796826890441268e-06
1.080800578526351e-05
1.768525327083951e-05
1.614986679409209e-05
2.849999495155837e-05
2.65772076422956e-05
4.455843015342292e-05
4.113642926034481e-05
6.731646814187346e-05
6.321491228335693e-05
9.975569985293156e-05
9.370059933823643e-05
0.000147669614671736
0.0001624430236442002
0.0001959891073929525
0.0001838239912491849
0.0001540148564211815
0.0001708719246225597
0.0001703724310134784
0.0001604238626854322
0.0001517813778585331
0.0001467779704145659
0.000146782427598152
0.0001444684762236445
0.0001440949751453377
9.03016309972395e-05
5.830079964377727e-05
3.268655243308964e-05
3.463403330978575e-09
2.012792687794334e-06
3.995635728328226e-06
3.432902203146921e-06
7.843196402765224e-06
7.026328489634674e-06
1.759043697263609e-05
2.726700604444366e-05
3.86437446895393e-05
4.255974253778266e-05
6.147735473060097e-05
6.295503944827761e-05
8.653505135220695e-05
9.8734013676111e-05
0.0001294508699151691
0.000123776950020141
0.0001593983595946396
0.0001469499853831023
0.0001601210950217281
0.0001593270608969921
0.0001714734023377061
0.0001694517348028624
0.0002327019351346122
0.0003350530172163765
0.000466333778018965
0.0004218135396804116
0.0001606289829334481
6.2658135213464e-05
3.681660333834322e-05
3.372681172491661e-05
0.0003421625373142573
5.390584661314842e-05
0.0002654919137129014
0.0001429077465725267
0.0001090113999332907
2.908873898759163e-05
0.000197856753390378
6.162729066168799e-09
2.159869263178487e-06
4.256934322349446e-06
6.430920010112711e-06
9.940279858493679e-06
1.045405155581833e-05
1.779781933530013e-05
1.64667493500249e-05
2.884106725815485e-05
2.594294458571627e-05
4.432392307676345e-05
4.109510924747885e-05
6.725538411486816e-05
6.358310856832118e-05
0.0001004024439172593
9.602770220619743e-05
0.000149389129991364
0.000153204304158557
0.0002201401183473645
0.0001972521968994759
0.0001818545393422483
0.0001559436969421647
0.0001644411344968858
0.0001679018046656581
0.0001628205167059365
0.0001574807482445057
0.0001580881967532532
0.0001631452698539757
0.0001501359670055551
0.0001574413032870513
0.0002049719358283214
9.528359611890798e-05
0.0002423509549348276
3.790274033776305e-09
2.274765466383644e-06
4.341802463112931e-06
5.045391495080817e-06
8.121448208313035e-06
7.259359948801027e-06
1.353188281420513e-05
1.967096580524585e-05
2.825498043081531e-05
4.20522413187523e-05
5.811103986133626e-05
5.562521512105919e-05
7.872647338816693e-05
8.872623207493329e-05
0.000113324252731916
0.0001194611750161719
0.0001488451429546901
0.0001440992447132053
0.0001565440134943949
0.0001574726077947844
0.0001706070128224654
0.0001735957540762904
0.0002124347115924936
0.0003203984061884689
0.0004692372089844526
0.0006114367861187976
0.0005372248507770613
0.0001957108599838607
7.852251078645167e-05
7.047763708555138e-05
2.533229953340744e-05
2.78011877281525e-05
0.0003401332587348906
0.0001013544270416107
0.0003311240414074791
0.0001184988701850442
0.0001201819106210185
3.38220913947073e-05
0.0003373759470062491
7.213981763699187e-09
2.14822292278145e-06
4.258335737439679e-06
6.492087840799712e-06
9.933938545594525e-06
1.108728731453572e-05
1.781009896144411e-05
1.673427221707261e-05
2.898143065952715e-05
2.648257638976603e-05
4.453010776563411e-05
4.004473211773455e-05
6.738753002434086e-05
6.298048945386691e-05
0.0001008459782623055
9.716338921751173e-05
0.0001508778861700528
0.0001514585836645204
0.0002274368148538843
0.0002421111573017946
0.0001944919458518007
0.000177143162224255
0.0001500503109397573
0.0001571032547878537
0.0001655840312443402
0.0001645629985828112
0.0001675497490856929
0.00017328024411166
0.000165916841802441
0.0001705798423455339
0.0002133809900856098
0.0001572571721433351
0.0001036262097324811
0.0007445209496161416
5.144992751890218e-05
3.943527137742334e-09
2.376577115862922e-06
4.487058323577653e-06
5.725900107735798e-06
8.965701179895441e-06
7.737673768426696e-06
1.655823687895525e-05
1.5685156722917e-05
2.173613525352631e-05
3.956506832012582e-05
4.357532404214076e-05
5.582633102142272e-05
7.254998769315339e-05
7.121297717520593e-05
0.0001026555448682297
0.0001119205569397481
0.0001334644852180463
0.0001438342862714672
0.0001511301245535582
0.0001560303141278652
0.0001687771584412496
0.0001722842573156408
0.0002240004865158789
0.0002911212006803839
0.0004058913115081841
0.0006139532627678293
0.00074256672584497
0.0007805358510348954
0.0002520217452085382
0.0002075940989603246
4.763266653845555e-05
3.789572442628866e-05
6.768770248742171e-05
0.000365983539144409
0.000263280905791092
3.877149731860124e-05
0.0003025040887720765
0.0001155717842395244
0.0001729755345753033
0.0002283438857709974
2.271942397956685e-05
8.315953139778956e-05
8.558161001006108e-09
2.307494649816596e-06
4.371547689338784e-06
6.250544172721317e-06
9.972613479164826e-06
1.067252901501566e-05
1.795525562599811e-05
1.668990675289306e-05
2.913396465852065e-05
2.65856139088695e-05
4.489095253024255e-05
4.093490804084342e-05
6.749716312826158e-05
6.300201900357176e-05
0.0001013450883169678
9.714578377104623e-05
0.0001520221803405784
0.0001547295546174356
0.0002299580665011282
0.0002655243579958649
0.000279686245396172
0.0001941810157587902
0.0001709701618726685
0.0001426349609320172
0.0001529925703483289
0.0001638064510887661
0.0001724068058973328
0.0001762578428041599
0.0001641146252662647
0.0001512883976252326
0.0001914960654751948
0.0001687900335008362
0.0002058171598730447
0.0002491767020819663
0.0001169392432820486
0.00135599452842309
4.274019725495282e-09
2.419530536866565e-06
4.699028293441276e-06
6.452943196925144e-06
9.743398923893679e-06
7.45035621014243e-06
1.49910521246434e-05
1.508546117058308e-05
1.8664867811642e-05
2.990989932488609e-05
3.559977621231167e-05
5.816189222203255e-05
6.228279888281983e-05
7.531132000719453e-05
8.545517237048331e-05
0.0001003997028723132
0.0001202301269098495
0.0001384164366695207
0.0001492516944839168
0.0001539351325352754
0.0001679932926335697
0.0001709346567803569
0.0002220286541529128
0.0003078639705096626
0.0003811278024320243
0.0005118283790461181
0.0007444939986528289
0.000863453664991659
0.0009644122037385432
0.0002989723128677257
6.439085970303429e-05
0.000172494745434551
7.18624611074305e-05
3.792911175745963e-05
4.63150606531585e-05
0.0003829498734705375
0.000214039074362299
6.4769894559589e-05
0.0003595675939346601
0.0001194971222824443
0.0001464797696979119
0.0003598226339756386
2.744091591846146e-05
5.895638964168268e-05
6.725677086967179e-09
3.130635285245033e-06
4.715123304092713e-06
6.758326104418507e-06
1.003104354643357e-05
1.077339444964464e-05
1.813729301829574e-05