/*--------------------------------*- C++ -*----------------------------------*\
| =========                 |                                                 |
| \\      /  F ield         | OpenFOAM: The Open Source CFD Toolbox           |
|  \\    /   O peration     | Version:  v1912                                 |
|   \\  /    A nd           | Website:  www.openfoam.com                      |
|    \\/     M anipulation  |                                                 |
\*---------------------------------------------------------------------------*/
FoamFile
{
    version     2.0;
    format      ascii;
    class       volScalarField;
    location    "4000";
    object      omega;
}
// * * * * * * * * * * * * * * * * * * * * * * * * * * * * * * * * * * * * * //

dimensions      [0 0 -1 0 0 0 0];


internalField   nonuniform List<scalar> 
18230
(
28887833.96701355
12509200.94902059
26649124.68019357
9133444.193118136
7618807.774076115
41770083.37201054
10863420.19768407
6264651.931651487
6303907.735743397
11739483.26763385
20345718.96167119
39375611.41905049
12328671.78177861
17257295.3046509
3634845.96036115
5237352.530123873
14736228.7404042
8819862.513252566
14308856.28902123
33830870.30874278
21035570.37389242
12949155.5910463
12947899.78736848
2841111.955332348
4276742.094585989
13561737.2223745
11705562.29168892
4716316.677814482
8806420.797796829
26789400.67792539
25732446.96608426
10924439.34809419
11421216.96785496
10131724.28251761
2498107.296870147
3561605.874598826
14011411.67617032
9116250.496922232
4862126.242941883
3195965.734009007
5548968.867336595
20987847.98333889
28269625.88630198
10930956.02063775
5906803.925407588
9781079.650309283
8643859.194070002
2284208.444896555
3014555.208008326
14694121.8531318
9524101.72739261
4735061.865846976
3996880.388137817
2220505.708830866
3852642.414216849
16780160.63343051
27598791.04809417
9489050.338166399
5485862.317536138
3858390.45149385
8334892.210233066
7362487.679409438
2054865.11211921
2735738.866568268
14298022.28603617
9919382.760282548
4744864.919605387
3972048.080856507
2376889.030410049
1619260.216802634
2907055.453275711
13729137.34388852
29407507.9779212
8648594.668780172
5396726.838009247
3818351.475516777
3068982.092292689
7182177.350327303
6473683.856938715
1926696.182283315
2606930.219664544
14399861.96189606
10593535.19467141
4830714.930147641
3875971.562458402
2354622.726019097
1771213.863897613
1238594.095191758
2255621.575554068
11515704.71196708
30753659.98497291
8733652.192166079
5476957.277695841
3918764.837404513
2962024.412251961
2615152.234344478
6294099.613938596
5883066.540344669
1865962.405612385
2715366.342450012
14192765.07790768
11179998.06265122
4786510.512594261
3835496.465052365
2230472.033689829
1780697.251562028
1213463.691455552
975527.5896990966
1796195.037091387
9804210.844768073
30417481.5915887
9152796.381326875
5602814.639843456
4058444.633609085
3114209.097468277
2426800.713702082
2281463.073234273
5587073.33396923
5486264.636443275
1839463.1904131
3144546.362809018
13632865.08389566
11120498.74435519
4753041.327221498
3710380.736954503
2182113.744847275
1714850.663937948
1212829.567025732
940599.9372282436
802009.2937858896
1463451.388698643
8448382.099451996
30073090.86960521
9621867.804187123
5765291.199837888
4169539.699658065
3265904.27694637
2571515.072091915
2056889.791453118
1986893.563045563
4971803.233769343
5212830.865509992
1798299.351467906
3493884.559420091
12709614.64513263
10504443.51333496
4598586.072428606
3440217.025690407
2142635.678371347
1680502.350851266
1175755.711939863
967772.3690274842
732622.1778402815
677083.4524691333
1218720.724733148
7308200.23073507
31107978.3052876
9656268.079924203
5917875.558264198
4275538.887960702
3339242.151328085
2709937.340436253
2193500.69035953
1799626.717750834
1768816.623052596
4489717.756839355
5041480.319034006
1752806.07151769
3600725.560081506
13402421.72090991
8257065.983663543
4309617.424472701
3266804.028974432
2057071.330726797
1639028.394255685
1164285.647870937
950777.4919919147
755488.1100692438
613750.5047485433
590123.1385646631
1026692.568066076
6318912.625147932
30034004.91117446
9670489.536272198
5874856.2054139
4355635.654867176
3394825.390478581
2756266.521845112
2312156.694307391
1902878.943373961
1602700.9860566
1594200.008663257
4056281.145528211
4886609.719634028
1741420.345661818
3590987.327105469
14108755.28029636
5520500.746406682
3575898.365217937
2993999.738957134
1975473.474971928
1588767.745966011
1154650.664156303
950719.9298227067
745356.4670741055
640015.7245721626
520114.917861085
513525.7075341418
867447.5699067877
5475017.519036361
29785125.34354386
9700677.500406655
5905873.698679151
4333415.102682252
3428399.282201787
2796468.692245679
2341609.991464781
1997349.400276829
1677716.546018303
1446155.925243607
1445391.427758646
3645886.943149521
4736273.896663247
1815031.626462594
3601380.289672522
13565273.13876106
5331331.871190832
2876372.262474482
2620042.43588838
1865851.020921248
1556120.920570852
1133427.604658606
944966.5420081242
748566.4668344313
634820.0657441536
543187.3468019994
451634.1987062767
446021.5620951918
731670.7410108056
4729750.248068535
31254828.56149437
9385846.770662926
5946130.790341429
4356589.655560056
3412817.542674671
2815489.327045953
2369429.245298853
2022556.551796271
1761386.364911474
1493520.966868742
1315780.517530038
1326816.572201353
3253656.653936718
4577818.799094805
1967252.714876717
3602443.790963172
15604740.70638354
4348812.925975475
2905679.859117352
2065341.431190742
1733675.62856935
1494537.800061546
1117446.327321511
941481.0750873946
747697.5597950086
639582.9202925379
539581.6603948085
473005.8516898594
390946.8311244582
383727.4198067178
612178.7359082971
4030309.341175434
31345619.47669786
9579015.696115194
5884927.588531802
4380115.310378768
3412727.595816072
2810027.898708557
2380539.477377429
2046940.872457425
1779204.261047003
1567771.998064314
1350521.495340078
1207826.001771194
1220634.004886502
2867178.857614132
4422980.2194115
2105226.323997042
3536160.617581406
16737366.63073859
4863063.357082088
2784679.635833349
2119706.756877043
1593286.945624538
1413514.738966424
1103498.678841511
934742.7208330244
749905.519044071
641886.109683749
544799.0933798956
470022.7520219099
407148.4615061875
339412.2448068922
327714.7172443719
507705.5754125695
3398258.051925775
31865726.02228015
9953667.201172367
5909728.380628034
4361549.535693838
3439789.415772104
2806052.37718224
2378367.841791919
2055573.58221385
1800271.745581988
1582601.825609421
1416850.875058069
1233251.310118013
1118906.458717251
1122216.691137916
2494891.77488484
4205357.253982219
2196019.328398851
3428936.838701575
17010461.34730847
5851941.804366561
3168728.631115546
2154581.209439337
1635943.293691666
1366278.384936099
1086068.15525122
933910.8716479975
752099.2094259106
646395.6309432001
547606.7241299608
474499.9728467623
404700.2738298196
351911.0018865035
291857.4561602168
277588.661914441
416240.9001861173
2829593.628663997
32694973.82319575
9425193.747675588
6000728.112436539
4398914.10838891
3433045.609606625
2830885.969948606
2373888.176051598
2055605.935453821
1804894.067063192
1601399.311328348
1429359.542391652
1292054.737475612
1143708.30171577
1041035.510547104
1033012.062504011
2110215.261018989
3946596.928490076
2209261.160850418
3330784.425842405
16458044.04651609
5963071.186647188
3529434.291225654
2484000.655761086
1765886.475238744
1369723.35609454
1094131.676843878
934943.8855401482
759932.5166470066
652388.4528201625
551919.5608778696
477474.5851878164
408175.4263882142
350123.922427344
300160.7236567971
249872.2306236295
233394.1810045636
337424.1674903721
2360774.111263649
33499778.41916909
9930053.756858805
5816559.774122152
4428061.539069885
3434655.212588095
2831024.881593204
2387303.478084418
2052019.286681742
1805975.465539894
1606525.699947741
1444051.632806616
1302648.267743367
1198149.538878967
1060851.750813376
973165.1181641779
951295.7201872255
1740883.539879526
3641181.33767939
2202497.89215039
3170695.78635585
15856779.70613941
5792432.350115412
3546183.619068285
2705507.508587305
2012620.280472105
1519241.562564569
1168873.122950872
956293.7373973823
772714.6133091637
661883.1571891411
557708.2415916177
481907.812868716
410388.5020628976
352648.9312717254
298798.4217648209
255254.012059866
212145.148577848
195237.7693063285
271513.8176901225
1903898.02002803
35446519.45058306
9896790.075303297
6022026.503411795
4305714.704225036
3450879.734962509
2825455.850783912
2386021.999279508
2063207.279233817
1805926.184177527
1606850.243020645
1449087.407233945
1315371.820320172
1208630.934796535
1110839.887320091
983715.8494710556
911227.0279165846
878269.8531312949
1401720.254063227
3288443.281792575
2207819.975439784
2956495.037896483
17632463.35749965
5287357.508626278
3434218.573863673
2674459.172877472
2118579.644606621
1735037.062771915
1303284.323042381
1033095.942290373
811594.3830312608
677941.652858368
566070.7388974009
487355.4804700107
413317.9456976147
354349.7058967309
300264.890152116
254110.1903360495
215118.8918760051
179489.9088867256
162991.6360466387
217576.1801579407
1494602.666064463
35100463.43457181
10194695.03360975
6153832.535127117
4448401.106738952
3389570.453341154
2842764.744450192
2384428.138892416
2062369.620508535
1812084.27537998
1609839.440472113
1451882.431304473
1319535.459378233
1219339.819999622
1123127.789626836
1026671.497818324
922351.7329608864
837750.0808212841
806931.1329606485
1139660.944225149
2922958.248910043
2197835.961888334
2706113.311027982
17388809.11817966
4049654.865260069
3211352.582068259
2554799.733241257
2053815.457486498
1831652.389491161
1418510.423831637
1147319.948644847
883224.2233110698
716541.2847267181
579062.6019295058
493922.0361887209
417329.8120910362
356477.4023052746
301226.8810106493
255003.3196961118
214249.0986184898
180891.8152672394
151524.0061999047
136088.3220955361
173900.6089785815
1144817.95286338
33119583.31577631
10604635.53387837
6483478.830238622
4607399.940164735
3500680.484356853
2817115.722352008
2390691.973860156
2064383.1073766
1809388.842893085
1615503.104605341
1455325.916191484
1322282.746500188
1222181.806763319
1136009.255318471
1035831.467268915
964523.0727307582
830596.1431728303
766944.4858359923
727860.4488369543
945812.6490485237
2577617.368426978
2138716.457854505
2424889.212935915
19145042.12355755
5418589.807020819
2931886.289532627
2416669.775884397
1992811.046741153
1734921.157447668
1453438.587680566
1239972.186064935
970063.0749329037
777242.8318656501
609297.1159902097
504755.4488228225
422353.034787324
359349.6549933113
302471.7411433432
255467.5784209177
214446.3569477253
180120.4581387082
151846.0960584411
127427.6518487642
113758.1813490171
138673.3967616706
840901.6055272291
32707566.31091128
11675144.52204628
6844630.528110875
4923098.230835375
3697512.128716752
2917243.475990458
2386623.120947517
2073547.107432169
1811142.512518251
1617029.662104935
1460085.916121088
1330098.858412457
1221046.368227268
1141540.67059648
1046933.2310248
975534.3525063115
862072.5342208678
766173.3706112765
663951.5698955449
632899.0227012067
782661.1037707367
2247408.30224116
2028710.442857834
2137466.096280172
17038739.61160111
4166058.851104046
3363728.272767595
2354149.854326965
1924364.737729971
1673429.466918437
1414472.89342995
1266885.654731254
1027006.949718881
850259.582865704
656298.5222716202
529122.4016657156
430631.6247222913
363249.5515317959
303949.7192077028
256155.9478609405
214483.9986581256
179905.8559355034
151148.1647782543
127105.1797511866
106589.0592750218
94913.4781737834
110501.0184072492
598524.321384224
33647939.88248155
11341556.67106917
7240300.026051951
5264050.831329874
3983471.344226727
3108624.398067363
2487315.404012971
2086206.358646146
1822003.457827349
1621351.237190716
1461990.973453179
1338258.705489337
1222246.794427576
1144748.936665863
1051393.834493745
987025.0612719876
868828.4807998153
794672.3829992376
641197.6401553719
540871.3362371319
525578.4129052171
636910.5277254638
1940675.726916707
1883384.342548127
1846617.462028948
17755710.38461179
6019891.862935067
3100139.555794752
2578054.558268619
1935740.091170298
1626757.399905568
1381487.880256367
1245628.615834252
1035440.30313996
902799.5069705921
707325.6314001944
567759.7203820138
447878.2099044948
369361.314224286
306755.1524023293
256902.5938204404
214605.0101770551
179575.676548708
150750.9091880485
126437.9791429516
105895.4392552111
88501.44201835901
79057.4657251758
88601.2516410231
413761.8140953527
34486198.14734828
11630392.9695229
7071038.450200776
5484657.476205184
4258504.981444234
3372462.538209013
2686605.149918365
2192451.338562784
1845628.287582873
1638269.374160022
1466272.236868918
1344582.455022559
1224574.86556446
1145174.758682707
1053608.823916881
995620.9546567872
875895.4469731238
800299.3146728011
658686.583340236
511941.0663759002
421345.4389871585
420006.0327190013
503394.3986531491
1659931.63568378
1737433.409917799
1572243.039899115
17261580.24389192
6260794.761423922
3660001.221302867
2532378.867581
2060818.179587374
1668879.39175743
1378022.257736807
1213807.680353665
1021563.263694102
912246.566145225
738452.8583098465
612917.4730310711
474072.0043552695
382185.0410555763
310723.7392355682
258552.193944581
214937.8218801797
179302.405847016
150235.8880644361
125915.9417131786
105193.2417595407
87607.07318561067
73478.1606248984
66240.92092264743
71952.5867358191
294168.977698452
33609662.14483128
11950792.50301216
7365888.580790388
5389734.192518296
4361859.938522044
3618816.961945999
2938332.838910899
2385860.366425914
1957727.006360228
1672893.22610073
1484073.69655341
1350190.592468352
1226715.280267973
1148159.784891277
1055214.915704446
1000535.075072246
878710.8204520653
806023.9343917572
662059.9643205517
521807.1948882971
390831.6442557691
314260.8889213424
319701.5455415566
383944.2746922237
1417971.121143296
1588163.625391711
1327830.375670401
16968462.27040561
6200865.856789736
3759806.410320932
2797887.682627561
2075135.59874263
1758807.809477331
1419850.146012871
1215945.891495717
1016690.978983685
899879.1349861069
745941.9158045842
641534.7490530162
501818.3911704426
403219.5228876658
318595.7119119462
261286.8837159159
215670.2011653612
179326.3548678887
149771.7064261943
125340.1399175142
104566.7775165254
86828.84800752801
72521.0552695458
61586.29980891815
56117.68996730487
59569.52759148688
219932.4836179203
29824069.49214784
13491515.17616563
7831718.737277002
5715043.146171652
4337040.5866934
3682029.23009506
3156052.684322378
2616267.370286728
2152345.669990022
1789892.859985204
1528910.406969151
1372963.31228218
1236000.388844626
1150400.124548634
1057433.067018954
1002820.196526566
879936.1914963773
805805.8152613824
664838.0860881848
522221.9107308601
393043.777619354
283853.7106747996
216755.4994115013
229414.3284735692
280677.3704546448
1190943.596307496
1428200.191204295
1117741.203492769
16946955.61057674
6047387.03157306
3744059.237586665
2851728.261794087
2204404.132135058
1799176.40130227
1471974.299640726
1257606.572437821
1032681.729753067
896920.5830587397
744632.1736504008
651679.8875129959
522185.2257057427
428101.9987785144
331688.8483883333
266625.381373173
217291.6421911767
179537.4886473837
149521.3176572506
124771.9634367495
103901.1893667154
86126.1942100778
71732.32822976683
60638.1732418316
52223.02809596179
48165.0342446174
50383.26507245492
171570.0269116314
24129197.59266813
16533739.47222844
8963855.126153167
6321775.924010598
4676415.75633852
3703750.739981261
3183975.410319652
2822828.39096774
2368624.32945265
1971502.533464647
1646280.469463111
1423644.347587715
1261928.196453227
1159714.685929697
1061222.488805095
1005548.466713393
880242.0414517461
803512.2704659861
663166.6733710514
522364.0928973744
392017.8554291887
281347.0019646841
187160.8298198703
139114.0452859433
156471.1286944824
198684.3538875995
978731.3131099889
1271922.892388336
934776.9067407526
16962810.46305724
6023027.948921666
3710970.833278237
2837460.465818518
2211771.61112609
1878735.489701282
1501674.787593432
1295212.984436312
1056770.612329697
911916.1751499552
752978.7201125555
650194.2113090249
531005.690966433
447253.6947718865
346244.4135546837
276612.6496762527
219749.3970699898
180259.561599275
149466.8873804189
124288.9320042464
103239.137826358
85398.65756861499
71043.22114455415
59837.58931809427
51248.29637190206
44773.1979237605
41731.08688872096
43535.41063868954
139956.171775987
18329881.68059967
12694476.30377762
10181682.40054419
7713867.05478002
5365928.561336526
4056124.67773079
3242069.005643641
2842880.57781983
2564024.911010595
2172720.100075543
1824232.247396118
1542269.788833483
1318522.979729346
1187723.215449883
1068901.047164823
1008326.321078621
880526.79436081
800112.1060055703
659518.2920781294
519060.5701481243
390673.7220851443
279311.029149276
182538.823608715
116909.4323959902
86679.946786249
106448.6988740881
140262.7077452976
793498.4425133236
1101647.694390075
852588.9558336765
16980378.70373491
6031814.72006941
3744409.790171617
2814582.728335118
2189658.366078386
1878636.519988071
1534923.093067184
1319723.781125508
1076669.432860806
928126.2421275915
764035.1391972429
657764.2314718099
535409.7711412448
455471.2107524974
361720.2586073029
289857.1447891796
225356.4852399268
181113.3336556429
149566.8956096038
123920.8481233878
102605.1498332978
84685.61779285774
70365.44990974719
59217.7622174421
50440.44377207979
43769.95649665318
38641.54200616194
36500.71725394193
38507.84699819667
93428.28904488712
18205624.1978706
11035829.68260008
6942338.838133046
11072302.70476303
6382816.903507411
4771091.976644279
3616222.790162115
2940718.148924669
2529909.276176512
2371956.432359469
2010713.075035298
1705299.033960572
1434688.414072217
1241115.081910616
1090667.251838695
1013792.200061563
881904.3201618943
796845.4614612815
654476.8767990111
514225.5809497268
387371.0419446626
277362.3501652884
180188.2580038886
113176.0800723766
72684.43684907854
58191.62165385365
76810.31405141279
102980.4763280378
640187.4733373298
1024550.383094875
912600.1450555468
317590.8797777587
16910052.87046498
6032581.919178045
3728878.284549311
2842512.24654256
2183017.76033641
1850697.370537949
1531771.380538944
1342328.057693935
1092954.561161552
940298.0155094434
775309.5709661433
664020.4814747018
542545.6389062634
459020.8783288564
369292.9740582207
303216.1614757036
232489.1879096913
184640.6643323827
148958.369301858
123382.8421408556
102030.8517473614
83971.15229308796
69709.28605759026
58606.56084749012
49868.73448977397
42984.20355734108
37636.78024071039
33883.65924149023
32740.14933577153
34082.00452987229
53389.35831696792
18599033.64809069
8078195.62414993
5282911.644784888
6612927.448988092
6810613.472961206
5667367.267593818
4286052.471865455
3305781.666927562
2644543.47674829
2321980.448179764
2175717.494476849
1856502.935988808
1591711.837551548
1343911.737230635
1135332.264857851
1025709.398760294
882131.6389878431
792187.4895796365
648879.9590834449
508301.6742309537
383027.4151325366
274390.0688841027
178501.9251493636
111321.7442777373
70388.5433314964
51213.67422685768
46024.78012935224
60817.84429673926
80024.32522298582
484965.0909959497
895835.4935814351
873994.6388398585
229828.6611898438
17601017.22629581
5984573.33225215
3676406.360448312
2828500.155789896
2199719.231751504
1841696.313263212
1520435.522189841
1338148.346132004
1099984.899047867
953140.8426167018
782660.7890875251
672166.9414562822
548549.5487813837
463028.9228522525
373239.5856504723
309483.7526262123
242635.6048922341
190153.4152706144
149744.132432044
121891.3490334942
101069.9014149739
83290.07429395772
69063.38853779972
58014.30121305589
49304.43392424584
42446.16003743494
36886.40258397032
32987.36661649597
30389.96895218311
29396.01511979075
31114.53961047073
39119.09058477648
18658393.95268809
6853615.173819658
4271074.143583861
4288955.590613705
3620679.131972251
5827694.245551476
4699994.711717842
3851985.990135308
2984601.288089514
2441989.721346538
2076371.669747312
1985454.210948054
1704413.031094166
1460375.716139137
1212925.17903411
1051495.252748419
888273.6555086045
783598.5512179032
640636.8546181672
501766.218757064
377751.8789146162
270610.7253340388
176447.6848503393
110144.7921465112
69385.14463742501
50204.86489856486
41524.16056255191
40516.69628100197
51669.28543768857
69958.16949774818
582300.9664508548
164009.2606422051
889423.1660818707
866570.1281269351
575780.3546376192
85268.6949210302
255088.3336851313
17617471.12734312
6043775.320551198
3642996.681804426
2776784.551894862
2177293.760268588
1858608.586596366
1515029.182141483
1327949.627778987
1096599.622983422
957798.0051855822
788749.7659271196
676642.9434487645
553492.0152632386
467054.9469794395
377035.0133108096
311863.692077329
247347.6927670593
198236.6850332087
151210.01829352
121275.2196596289
98944.17186073051
82170.76198988107
68389.23751329056
57427.09442862836
48751.08083383584
41923.2458458759
36388.74541817405
32326.70779834534
29385.52310570152
26983.80414222745
26269.62625843033
27277.61705709883
28359.31232068475
19351570.63155351
6695642.168377589
4046222.34309623
3303250.53185044
2892923.875267666
2780562.462307379
3795618.247238968
3967264.691815621
3417419.793057873
2679634.647159241
2152378.182108533
1904494.617883962
1739454.680816206
1543982.242195671
1290633.934191689
1095650.77845945
897254.3489544473
768100.6878456586
628477.7680692644
493106.383799765
372049.0076357624
266138.8145900191
173989.432617286
108862.2833310945
68884.68571565104
49819.97664554906
41176.79799007982
36673.68539551867
37374.15419937082
46264.20509540918
66643.95118983334
49692.42199692779
411449.9934985404
101860.6802544608
725615.2366363473
814799.4154586673
509970.9180284943
69185.18376303746
133898.0591480885
16970887.22596321
6030091.495807881
3652688.8473627
2756179.187047117
2171772.302317458
1828299.430839309
1521837.209432379
1321801.460673214
1093116.923769199
953987.165037091
786958.3568492254
681487.6888991831
555390.6383285719
470268.5897206636
379614.467584065
314158.0074824502
249310.5551533041
201756.2747289485
156237.3801457664
121676.3573801412
97386.01961706694
79940.72139177663
67270.7458407095
56734.63784065725
48166.37390196708
41399.65108199979
35914.90526470302
31894.36837746154
28624.7649378832
25990.38898424845
25655.73218920189
24829.50594185021
24061.02321688453
25591.03326296293
25243.14788953762
19574005.84932636
6751470.275827964
4061534.784623948
3180668.717377896
2564417.554516728
2478080.501318502
1970525.048615215
2776327.192593056
3261619.184384669
2807330.958628748
2356071.003225033
1915198.608277084
1616628.877523659
1560392.585751295
1315419.21952446
1123755.328174401
915356.4065578624
743144.214384563
605428.1448866569
480532.1521492552
364551.8064942973
261459.7581938426
171150.6254611275
107381.2940713375
68324.75185036333
49645.25723613095
40989.18949051083
36703.755039402
34957.4764353434
35799.20415127547
41018.04078141588
55409.37966606577
45988.22353164695
469301.496669799
147116.5672187245
78289.49779524568
735511.7850068688
636311.925759096
778419.6811788689
222676.4348939587
39422.70765033925
86680.47266432822
19185501.85691348
5508048.71176437
3568741.611898751
2763287.276266786
2147847.899836317
1830082.578477854
1507115.995049706
1325436.059889193
1089967.505066116
951120.5806613729
786587.9571687259
678345.598927498
556550.2133544976
471220.2980466468
380835.7766761176
315769.1517188793
251006.3028151338
202977.7584103762
158859.7713182559
125157.6834098669
96617.85025622966
78085.01407450555
64975.57391176729
55520.0020173878
47431.66330998389
40814.4023938611
35432.9456035326
31481.06415806682
28070.04917462359
25157.97622563017
24183.79378435279
22595.55369013275
22451.59464092983
22038.45500278449
22616.96639466595
22447.68335358685
20193666.00762335
6867062.838753776
4072367.380556418
3155630.968482665
2502878.988459966
2361611.334052844
1906492.348748861
1649157.204146054
2043973.198607802
2499528.229252435
2378574.496029321
1926199.039163342
1616408.854133441
1371222.989052872
1268663.730543648
1098860.264439953
911054.3035523292
722094.5156302203
571722.5088207632
457909.542546624
353847.7521380106
255293.9412931303
168214.4471794533
105836.9499832252
67717.04584855425
49446.09848823394
40908.98047116632
36562.52560084398
34939.72693368659
35026.42472573661
36534.8915225704
35178.26712393895
42256.82613214126
46790.22506946301
54732.34682198526
240727.1494051287
92929.58711946679
71548.62330554448
684694.6265332232
564869.8291685263
742521.8457189393
127203.4767479864
41196.90210944923
68191.14766797358
16783906.96067778
4089090.181952187
3335191.77245609
2674743.276245346
2129704.552509788
1803997.202464116
1495166.558398899
1314275.317298018
1090011.461238005
948208.0772632365
783683.5965016572
678925.5093564324
555027.6422699809
472037.2522280168
381236.3773232034
316546.8220852432
251967.0220520481
204092.7924260669
159916.0633375872
127188.6589433905
98709.41234391656
77154.0800041402
62835.07948970421
52967.87393674174
46149.43675063513
40053.7596847251
34875.98406857845
31030.17947095567
27482.39836372359
24757.97603603368
23381.07760633148
22382.72640157011
21850.65422417488
21705.20237859711
21593.99875035733
21008.32233858914
22140.67944389806
20927.30828152999
22865.52203760227
20612453.37376586
6653142.922813369
4092045.454936262
3119584.572831079
2526231.205801552
2234801.772536644
1841925.415737973
1684579.971385877
1329322.910356153
1508276.931041283
2008065.379368759
1787560.35106562
1613924.822986277
1277467.990615826
1132699.49972677
983427.6073593559
865554.5481786815
689218.9943390604
543600.6815068359
426814.7598071805
334727.6258552602
246806.8831539192
164379.1569089553
104087.9991523197
67099.37990335093
49235.68812461984
40817.98969006126
36516.23085068053
34986.84254358347
35234.10979344991
35131.16903541356
35447.06129141872
35163.51742231482
40672.90387097787
42224.56823408923
49553.29966864001
189901.4011090646
88571.69673280677
52746.50223370079
357890.7673631436
710010.9817475566
644383.8426966554
244730.3027668134
75280.7756880761
34037.53479731284
15884369.75894095
5758826.27665465
2976941.299140197
2510377.146226125
2079133.1878364
1776290.258660077
1473981.333383688
1295453.706826359
1081177.024982792
946306.0257806538
783291.0557508961
674442.8077277055
555217.6211819748
471180.5097015979
381819.4779242336
317005.7180309138
252554.2325879062
204857.741971203
160785.5121436458
127937.2630276795
100119.2553528772
78579.16113768291
61441.67816176374
50765.258629733
43654.29704977353
38770.67922962355
34112.53966881337
30457.07833227611
26858.67793730558
23898.08612621319
23677.60534344651
23161.0820369735
21590.4614794077
21288.40678472086
20699.18322791449
20510.85948541931
20692.06869789939
20425.10474939836
20940.10360408543
20025.79452426589
21123.57879571572
20596665.44434235
6318630.8016757
3998715.777567228
3091240.194555912
2471095.60675936
2253144.158893839
1796461.242442585
1663378.731985746
1361094.507027747
1181401.532934389
1193465.058364183
1464476.866051983
1427696.641201524
1177307.127396596
1037586.312321312
848197.91137567
762691.7231260516
638589.5121944313
510652.4625589438
401456.0575884377
308870.4021554103
232077.99129046
159351.0867236533
101935.6221992164
66405.477003464
49017.60752322349
40710.1275769371
36447.49691315389
34973.18053206002
35312.61518027353
35164.03173031964
35289.3690617813
34977.36738387829
35127.96080601314
35022.51616231925
36715.5289148491
39786.06282056078
42848.85956786836
106927.5849564874
78960.62720958452
44453.10772433296
267394.0742778866
684719.1683720826
596428.0307636727
148966.8388312831
63512.42727818529
31626.13919782202
16425822.04324662
5699568.408482733
3544166.82413395
2396257.551109526
1981856.393760958
1728716.617568036
1445982.50101169
1275262.617620545
1068170.472274255
937689.2981930788
780241.122610217
674590.2838281877
553280.9089939984
471064.4846150214
381366.1564230348
317753.4393988495
252854.6770512228
205445.5309997564
161425.7565702935
128619.9011939281
100669.6079734141
79556.29284355718
62391.32929915649
49107.26286729089
41337.08069650063
36430.4857792121
32835.37139444023
29618.48147476016
26135.94897843458
23688.92308081362
22541.46025051289
21750.82964807717
21613.45640797921
20865.94584528776
20570.509351666
20237.4941985341
19993.74845992263
20132.37294512052
20114.33609954643
19766.1656573661
20836.2791413307
19672.55011909168
22985.46080991293
20809835.51913084
6316645.323846074
3949841.482093992
3025741.579733339
2440252.560017929
2155846.794575732
1804729.2088131
1626640.509585605
1340061.327981818
1209082.702658222
991838.3953150447
966226.339382306
1161605.486894201
1046207.920584426
923624.4085844023
764698.8938928091
664866.92233208
560983.2098602247
471903.8600292442
375969.5371432204
287343.540944332
212965.2595940365
150625.9163727458
99165.45003162288
65538.23053584066
48781.59269594286
40608.00878023987
36375.82634734079
34905.39009860653
35355.10620844032
35290.34825000202
35056.03840353608
35102.33049872402
34884.4813686065
34804.5481046459
34808.57513883358
35799.66562019781
37300.53846640484
38775.02818376377
120642.7706373378
64880.98191177812
39236.27403682736
45154.82548638045
282616.6872228271
494145.7955235811
635416.236022522
298005.4672805791
80393.40340351361
60731.34935264423
44584.67411953733
16317439.72774358
5840309.343202107
3493487.61361185
2675371.302330857
1948344.361101887
1654388.633681113
1408986.65922277
1247791.920183486
1050016.455251228
925616.6596879668
771302.3392431585
671636.3972637879
551153.5097605077
469214.6459288292
380997.1736676742
317317.8097930827
253163.1985329257
205844.032444619
162040.9283639089
129198.0178343661
101180.554636018
79991.23703173276
62905.83628353176
49677.6862565991
39447.74822761789
33947.20975948269
30620.35229201832
28304.29764561533
25228.46424607869
22491.53223625959
21945.86112537567
21056.62262363951
20258.632596787
19994.32824165162
19812.3966911215
19703.91097895384
19548.12334382169
19617.74340408801
19599.90260928569
18526.47154843179
19559.28165878422