/*--------------------------------*- C++ -*----------------------------------*\
| =========                 |                                                 |
| \\      /  F ield         | OpenFOAM: The Open Source CFD Toolbox           |
|  \\    /   O peration     | Version:  v1912                                 |
|   \\  /    A nd           | Website:  www.openfoam.com                      |
|    \\/     M anipulation  |                                                 |
\*---------------------------------------------------------------------------*/
FoamFile
{
    version     2.0;
    format      ascii;
    class       volScalarField;
    location    "4000";
    object      p;
}
// * * * * * * * * * * * * * * * * * * * * * * * * * * * * * * * * * * * * * //

dimensions      [1 -1 -2 0 0 0 0];


internalField   nonuniform List<scalar> 
18230
(
26082.69790001644
15767.43479921718
28681.72479132011
26102.24712396015
4804.185297443862
15945.73898790353
20917.2644236976
28642.12896680956
26133.48430664797
16825.99328269726
5040.403973897624
16000.7697923663
10609.66611120291
21034.95113800321
28653.31769023281
26141.9173036675
21852.62535252624
17011.20052336988
5325.178423958483
16058.45491577297
12910.52447995726
10867.45808503859
21007.62956310099
28635.80094934441
26153.91536523787
22511.45251501094
21936.67667991167
17055.79090510629
5531.585078875765
16201.76281985999
28905.07478150002
13258.22123784111
10963.27490363774
21077.63917578929
28628.93037718544
26129.8614384108
23014.52769376097
22551.6689829425
21878.9584215396
17223.10117136677
5795.646028300672
16400.44402183052
40115.79657807294
28927.14762994672
13455.96923975271
11099.62517226347
21063.89088950727
28634.78448652413
26120.83418107678
23669.6741200245
23069.22421018013
22517.72155854693
21932.33255973963
17378.43459137025
6092.285701619834
16567.48297251526
41743.28829751311
40109.34918079746
29066.16719849407
13682.69116990659
11254.09693501076
21137.44333553735
28623.67104209702
26145.68189720803
24419.98545840805
23736.14835146297
23022.12101916231
22538.81689735212
21932.83053720906
17532.80067683468
6424.371161477822
16775.31932980675
42947.00593617981
41740.76099345323
40135.98810853988
29246.72101914583
13981.28659805143
11437.5326142204
21201.72404503969
28600.61218529461
26176.94118453758
25271.59492478058
24485.46555411648
23673.0385739894
23067.68710864623
22540.78993707709
21969.91792944496
17766.63725268517
6808.959059169982
16944.68371104595
43370.8940724542
42951.26924119714
41753.36441493168
40142.56408258124
29307.05277744841
14309.3028154578
11626.53167591866
21284.60031390063
28587.5077182862
26214.17289714085
26299.23838610633
25362.09407237882
24428.14176025752
23715.49799563195
23039.08115143448
22553.10013255726
21980.90985200583
17999.27799294383
7240.483662415804
17118.26333242213
43466.73606849068
43370.44761494864
42947.75604503103
41750.21936164454
40148.24252041748
29520.28275404895
14729.40918631324
11827.78886430486
21385.24675123847
28556.1184903083
26251.79377867661
27426.94375533016
26395.97970090857
25271.39420082042
24461.10174980421
23698.44604909381
23063.91239271054
22564.02429920044
22020.06594840179
18259.33435966994
7730.802190246239
17307.74600017727
43340.8947069408
43466.39667969348
43370.14847839266
42949.14560065962
41758.56930649438
40147.71126832664
29609.35673490027
15191.00262379655
12039.32066869861
21531.73386832468
28517.08469207196
26300.53309991042
29328.35412511916
27538.68226863556
26295.18332348061
25323.80497367921
24448.85973697006
23721.11908321798
23067.21961466701
22579.99298920331
22044.79055373264
18535.91483350683
8281.784796251994
17462.6964433244
43067.46221361544
43360.79355350025
43465.35905998671
43370.09744225335
42949.39947941928
41766.6746585674
40176.87132373879
29809.29527673715
15685.33163487368
12257.35027027732
21683.51009847777
28474.24925586805
26331.96397420452
33955.8895072916
29435.25115640621
27424.66494527717
26348.86922344999
25296.71101120738
24474.98678668984
23729.86888792333
23084.77472031493
22597.05367107072
22087.38273339847
18852.5029777788
8899.393853443953
17750.87343137121
42868.90100640781
43083.88817860709
43335.77999170697
43465.10514826103
43370.47524944654
42950.99497099512
41770.16076942036
40202.99421067604
30063.92569484198
16282.5560925177
12418.91659552701
21904.49209458291
28495.07700162185
26413.86851399311
40743.43934406125
33999.92662743403
29327.91178285361
27477.06996217874
26320.52569674419
25326.88176551203
24473.14906208971
23747.17679548629
23103.53273651944
22620.69253155015
22123.81865923621
19182.44086546537
9591.920194254082
18061.41750829577
42581.7929836
42879.36958949843
43065.42766630484
43341.13958269546
43464.07715285189
43370.08002342962
42953.65991597326
41782.1866294638
40211.68320603964
30310.11438555083
16922.40823509241
12434.1297525427
22195.1983943912
28535.67376314515
26561.64801424257
50212.2626470836
40792.9333784363
33937.527404528
29407.98993574397
27447.57345056519
26350.37442417731
25330.39618796566
24497.39065990149
23768.06736401705
23125.3276317692
22646.45022268371
22173.86747411418
19514.03187549008
10339.33710844685
18361.1385966144
42096.64405984589
42580.14029489263
42869.92751373998
43072.20638949586
43337.58950018013
43463.64139934552
43369.43929868229
42952.74899532835
41790.61685370507
40261.19202449018
30578.34018139192
17632.638881054
12552.5641521944
22572.88120447125
28618.64630239744
26821.24912177316
55622.80036147456
50229.96423180123
40758.71454637833
33982.5833585124
29343.17154752669
27485.23248358108
26347.65661578441
25350.84998278336
24514.10466006146
23791.3358978799
23152.787384768
22678.47640978939
22217.71237983202
19871.81475781622
11149.82230109636
18669.26000129626
41278.99155228504
42098.59364056507
42580.84103135611
42865.50966567102
43065.09755410482
43337.83747588401
43462.28957979051
43370.29043394828
42957.99263247175
41804.1195324342
40289.45344170352
30950.32205117531
18378.41726487604
12689.30403317217
23100.10483744851
28710.14813413702
27243.49659159691
58018.06613629939
55635.89368498061
50209.34266916066
40748.88984248006
34007.88543454117
29407.10611167029
27468.04667105168
26368.16756821384
25367.14023521629
24541.51679924798
23822.01635595198
23186.30218204575
22717.32421703644
22285.10407531057
20214.32941108566
11996.55741157453
18998.70631888576
40255.11968911507
41285.27087142527
42093.56858360123
42580.92771444016
42883.38906070552
43072.96140338047
43336.47962903367
43462.80670300908
43369.25033114099
42961.50202359183
41818.41820060826
40372.98948808754
31291.46609621122
19174.06988545677
12777.28646060516
23873.04182868655
28799.97388825368
27838.2789602256
59770.68465649202
58009.71073748682
55622.64686314268
50228.30201889447
40778.5811824221
33999.91976490853
29379.94827576574
27500.26413773329
26379.271281844
25392.71425231461
24568.50612630303
23856.90279043413
23225.3997128427
22759.75837915357
22339.41129119162
20562.25289272453
12879.02483520651
19361.0764247916
41341.11995255115
40255.34772249158
41272.37716452451
42096.522049854
42581.45574437427
42864.01903087028
43064.73515244002
43335.64775842614
43460.08285347911
43370.04498885474
42964.99287198221
41840.91377856831
40389.23159325121
31779.12646199985
20006.15703838818
12808.84509431615
24830.02448691121
29033.90415280019
28633.7038060425
61430.88505203382
59770.48747680627
58019.19833156164
55621.21210274709
50221.33768106125
40757.32717013402
34001.69132991682
29431.64233811108
27501.08287903671
26400.36323918381
25419.85155129083
24604.8617966303
23899.73129539101
23272.011020663
22823.17995895329
22425.10193087791
20894.11614655537
13763.45604219631
19795.26815099424
43003.45719141805
41355.0628228928
40255.67669972817
41274.41802512094
42093.15261526395
42577.58195713073
42885.157568724
43070.00506300503
43334.24596206514
43469.51760016063
43369.89919621311
42971.65269340958
41860.6111676616
40513.21820944548
32210.1330557887
20890.3187370901
12921.50273501027
25984.13869089029
29359.39331284263
29674.04455083202
62945.6559233833
61430.967478928
59770.18840187488
58016.92666480794
55613.67310992013
50232.13224699035
40831.87213353865
34027.54082143079
29412.75456523448
27531.14351302024
26424.04616328896
25456.01991519782
24647.37969830241
23950.08564397903
23328.48294597477
22873.42940625882
22498.01781163339
21213.11914618744
14634.45745135228
20323.42600216535
44216.93993548948
43017.60455831778
41339.43662535721
40255.77995733315
41281.98393679719
42094.67128794164
42586.94515967617
42862.37089350673
43073.57064146001
43333.79825677753
43453.27236923949
43370.97528650526
42978.38177807381
41896.3557662049
40522.47561638243
32761.91887004376
21804.88000070563
13139.22536883842
27422.85626046935
29872.30547494721
30959.74556131148
64330.75287586592
62934.47385646963
61429.69926146414
59774.12621826409
58021.09183179498
55627.3927762045
50223.71296277696
40792.85705970664
34058.0265546389
29471.2050047569
27548.40375436753
26453.36259019648
25497.13187234301
24696.59129861125
24011.38903025239
23397.64604913673
22946.46476760003
22597.23624606109
21515.86754608728
15461.9913414074
21019.35299958486
42732.90810982886
44228.14015824398
43002.16363148129
41348.18304952646
40256.15847887253
41275.43257351696
42092.77032714499
42575.15314055863
42881.93458355379
43072.55040290056
43337.3911222142
43480.15838032171
43368.27609259072
42989.10430921656
41929.44418057134
40651.29899613509
33321.10777870466
22740.85235216852
13510.16510454608
28993.13467124268
30609.16119424273
32499.66074584317
65712.25178570657
64325.84162036797
62946.22288142338
61425.80343490555
59766.52415881427
58012.83870264245
55621.67548466693
50247.24869070667
40832.55251345165
34061.20205437747
29470.37914471572
27582.36443434843
26486.9882390552
25546.69616694188
24757.25811857806
24082.50807316739
23481.18648609924
23030.20079332236
22694.16654522446
21799.72803713896
16256.40883429179
21870.04565619346
40734.10956923787
42743.5722578705
44214.06657201578
43004.24898277381
41337.0229383099
40256.39470095802
41272.01981103048
42090.58306156464
42588.68787357772
42861.41630315687
43077.13755809198
43343.2179128584
43435.60226661871
43387.2699833408
43017.60867804085
41977.23333249283
40707.00237047241
34001.54586642849
23666.18164892868
14031.9705964037
30576.70148797641
31600.60012912294
34254.29187651971
66886.02734351122
65694.1023709821
64328.88302875208
62944.12233435644
61429.74888645923
59772.52269549667
58012.44477284107
55620.90376589215
50225.02386672322
40848.13853047127
34098.69360155579
29534.31739454404
27611.9039361707
26529.3987561403
25605.50085847547
24827.80405217111
24168.34333369364
23582.46047906465
23130.62977147955
22808.32843711914
22065.83731250351
17009.87766289897
22769.19603423154
39663.48638825484
40732.44144853212
42764.36164100646
44215.92483451305
43009.4862701284
41350.12222978958
40256.9452139511
41275.39589030295
42090.9245798432
42571.13566645516
42881.92012960776
43082.34348453864
43335.36237301589
43472.75801041482
43364.58839586496
43035.35556200991
42047.07326386913
40812.55774366586
34685.06937640552
24632.53855111989
14685.18047677332
32178.25936391232
32866.04362668884
36075.67355025899
68101.1559886754
66873.25596276684
65712.8350156205
64327.42425824783
62947.0054488749
61428.8251135736
59768.80907421905
58015.69503970459
55622.15231980124
50260.70826910118
40868.2073017263
34131.05225785659
29546.62804331409
27660.7009885275
26578.18957981384
25671.92285811545
24912.9390953342
24270.37327907629
23705.32645732941
23252.21992694891
22932.96668796398
22314.12687429318
17724.93855290859
23761.51844390391
41977.84524726403
39664.65159334727
40728.81289283614
42727.2419753974
44214.90595229421
43006.72507252274
41346.95962293976
40257.3195327703
41269.41489962822
42088.63804885919
42590.74178574439
42876.28912016051
43072.84572174863
43360.77189911266
43428.89445599516
43377.97054388645
43044.31693084112
42102.62069721959
40952.57324851659
35424.94943732073
25676.04182539427
15454.49583455786
33936.28832353382
34353.3621331757
37775.67172365385
69150.06307155339
68095.14471466334
66890.27167017481
65711.67183671395
64329.13827597879
62943.57324599119
61430.68404335235
59768.49770027572
58018.09692173981
55617.54471962656
50255.44048569639
40896.35691340904
34173.15869110313
29626.11642295965
27705.50776570155
26638.92767815237
25752.33791655711
25012.99618330759
24391.66012158723
23852.70028297196
23400.01167761134
23075.27421616975
22551.06446270975
18383.38278714035
24946.62316018944
45179.26715247014
42043.69779568256
39664.87489914904
40732.70181337303
42764.37371289829
44214.47701784634
43004.8558404046
41348.23893051671
40258.14733783031
41269.77136969893
42087.00950619134
42578.45231223438
42878.24577880916
43081.03692028379
43318.47171762775
43442.95397064939
43374.39643056317
43069.40441490701
42184.07123222994
41112.85216360191
36150.74312771964
26771.48622660867
16314.0532960321
35818.71233577857
35978.74511437994
39603.89398132218
70177.54067575773
69149.54686413836
68101.81277026428
66882.64376364708
65710.68722783233
64328.4747327747
62941.47365976985
61425.84129370753
59767.86797595566
58011.8521290898
55622.52357612753
50274.46951860541
40935.85744185784
34215.78785786782
29655.70105842818
27772.21766558904
26705.58321372181
25846.94348041476
25131.63900202628
24536.42777147935
24029.22308251422
23580.7072014893
23244.82397409527
22780.88829655455
18981.33171583965
26350.28591207557
47371.27104063199
45206.16313770346
41980.4372897776
39663.01812659552
40737.61344511498
42721.83746895974
44213.6500604657
43010.21628730928
41346.20223432438
40258.74257650764
41266.05509999608
42083.45881386889
42579.1180974024
42895.32473261122
43082.41762284048
43313.38564463002
43438.62316085901
43380.96110223143
43101.6672805759
42281.78810664894
41289.7171839216
36883.71546718418
27946.35299985525
17234.85702618216
38009.33944879323
37737.39513686179
41304.53869568809
71206.91640054819
70178.49250027355
69148.23736363636
68099.57417730194
66884.74311081966
65706.23961572353
64327.99120727502
62944.28758498625
61426.65115340626
59767.02803759128
58015.90765462951
55618.90787073017
50283.4575722515
40984.08629173009
34282.62936013386
29757.04279399209
27837.49498177019
26789.74009423228
25956.73634510536
25272.37419857939
24709.09622906051
24238.37174659336
23801.4620484753
23451.38353128399
23014.49254521989
19533.2821123221
27920.92509129012
36981.59629861548
47372.6301986602
45178.31119426824
41983.62749984182
39667.6290624574
40729.90052398078
42765.24806715984
44212.86251231599
43010.50301961954
41355.35322007433
40259.89928703378
41263.0927662582
42085.96638256311
42581.42079064234
42870.23610119981
43048.07492126497
43307.00954896657
43434.11321549288
43386.48615776284
43141.23746550312
42393.1787580434
41491.80061257324
37573.52136158016
29142.35224997432
18213.72150439221
39989.94185062537
39412.57491860331
42713.69149113221
72100.71579348805
71206.0118714048
70177.30832516539
69153.10411211055
68099.33874056877
66887.24487919356
65710.83716142796
64327.29421626
62941.42989519324
61429.60273182559
59764.8151658301
58013.49020490397
55625.76074976243
50298.04079082613
41030.56912588186
34345.2518297764
29815.30356817783
27928.39409578596
26887.06298713406
26086.73774751044
25438.97385467571
24912.07477403554
24483.46617310855
24066.02347579897
23700.66573572962
23260.21164030564
20092.73883367006
29730.70005055045
26844.14705987041
37018.54150247129
47367.87043284387
45183.6260226525
41998.07950135059
39662.06069878668
40732.73805564888
42718.84298871254
44211.87340611977
43012.32155796506
41350.83443474185
40260.82831455772
41259.14416476583
42077.34115736852
42593.45387022092
42846.54513985232
43044.26947068985
43296.56833318972
43429.51444473594
43393.76159535199
43184.81436319352
42524.61154224209
41700.21869946401
38218.27188664061
30285.50841792313
19284.14272840243
42938.84951216488
40764.38572193249
43302.58602889465
73012.29728081563
72100.07540778525
71202.86661898806
70171.80012758238
69148.00821071552
68100.93552875816
66882.27971953584
65708.22054309217
64327.41392313506
62938.62074712774
61425.09080103116
59765.2279919079
58010.16171438096
55622.4720915587
50318.77791117665
41095.94859605209
34430.70703148962
29932.85905088637
28031.09300236424
27004.80979016239
26238.83776773747
25634.08492031485
25150.17161858264
24764.79622742962
24380.26175468034
23986.14117620021
23531.7950197143
20616.08126272346
31534.62727830493
23985.90908182134
26918.4618208703
36976.6216038343
47359.94626106121
45175.20164513629
41978.45673393363
39670.80796959979
40728.67026865415
42759.64742306429
44210.80124142229
43014.84736392282
41357.0254147395
40262.72185603593
41254.05018587862
42100.43360510059
42553.55182477584
42840.75153510202
43033.38078944807
43285.35551903854
43421.53547923445
43400.6537779084
43233.65938020623
42663.81755125357
41914.33158951555
38796.19502355307
31331.62925282884
20589.84776269268
44826.28612165307
41929.36941758783
42221.68926637102
73839.69868788509
73011.94582061649
72099.85398156857
71208.79353361037
70177.5495218961
69142.32587313725
68096.38448302829
66882.37106608371
65707.45252846873
64325.05706458625
62939.23540834925
61423.84226343869
59765.1457897416
58009.80916192146
55622.73263243759
50345.42377778575
41172.91260868189
34531.12595953317
30038.95404525245
28158.86421573644
27144.44181765272
26418.00236890169
25860.81449396126
25423.14961413726
25084.80087924657
24738.47202040772
24313.48580956124
23852.7685521988
21151.75540959297
31722.59472266091
25735.7003920145
23986.67502072915
26821.25151216329
36979.43595842095
47362.34917168565
45183.93553965793
41992.43280422235
39671.11269733861
40725.01845350776
42718.96625199743
44209.45596834739
43017.32910920998
41356.46710997567
40263.69060977497
41248.38392209106
42065.11382299118
42544.08320846777
42830.86477077241
43025.46915667313
43269.15022839108
43410.25413414106
43408.58818344767
43280.52099302864
42808.27482198444
42114.23660428589
39314.20253528449
32292.32426084928
22301.90408893138
44632.16382634946
41056.57119653226
43331.35351013539
39061.44544512835
74667.78134287987
73839.10315951027
73013.3810814138
72099.46526384268
71203.17239196468
70174.70502702001
69148.19999021736
68098.66549145147
66881.04627730254
65706.11691432109
64323.71849142972
62937.2012364064
61421.04890884477
59762.00210614369
58008.67478322402
55622.93625061349
50366.86303938169
41260.01138362846
34646.36475311111
30190.44096709085
28310.5470892919
27313.74222377982
26627.1273930577
26120.6800357963
25736.57974380031
25438.04261622416
25131.97867476754
24693.93760448588
24206.11934879355
21322.3950230432
25287.01837757477
28117.7413051141
25748.10949872318
23986.79802726991
26854.09022564938
36974.77231104938
47360.76957412674
45189.12637415552
41992.91715158313
39673.97555569472
40724.54499163712
42721.39699772273
44208.19208320561
43022.15190243696
41359.84438388958
40267.15704519154
41239.76404477537
42058.80374090837
42531.45039595694
42821.81489773822
43013.256300569
43249.47827996597
43394.10488237724
43414.12127825855
43321.1476619312
42944.90058727575
42317.94189209279
39762.24366636464
33119.80278439257
23872.86085742509
43144.27720865606
41420.58712107109
43111.88188283426
40209.02680507463
75430.10090470671
74667.08571182203
73838.83307624083
73010.6493899838
72100.16551154452
71206.88643179038
70174.39641522746
69143.37808772206
68094.24308601167
66878.28698519916
65704.25094815275
64322.04714378906
62935.89901756231
61420.183573557
59760.71633159892
58005.17200880146
55624.08723811655
50402.92733893872
41369.47176095684
34783.88457697094
30366.75482086924
28495.10904406906
27516.99044734074
26872.60377409398
26419.40636446775
26083.53695233553
25830.62049439365
25555.72129980638
25105.35159793231
24579.20124066663
22848.06178407565
24514.45706610199
30116.89210581882
28126.48900766933
25737.13382655087
23987.42879169844
26860.39103765364
36964.35406088061
47352.31765492787
45183.38525070354
42024.66981104791
39675.55846175537
40723.14292978406
42713.46713828709
44206.06804681389
43026.19073884672
41365.71140783656
40268.9585091525
41231.45492658428
42046.07616567126
42519.40332117239
42808.75144824642
42998.40677861752
43224.87883458273
43373.2729376921
43413.53610726124
43353.03205244814
43076.0336341666
42500.00147887514
40149.01732245494
33868.01858388184
25577.9567942825
41396.63074501207
36683.28339209437
42798.552745268
44874.91484134604
42739.72828281444
34209.59113988675
42883.05509796098
76178.68786944673
75414.93975663822
74666.95869003974
73838.38925720126
73008.77964068021
72097.96039827001
71203.3611035522
70173.18367259511
69146.19462289316
68096.13915106557
66880.02807226116
65702.92383766535
64319.6289030585
62934.30153132812
61416.89207832141
59758.11684780095
58003.74527167935
55624.06489125561
50441.60170148552
41490.70117556769
34948.26510173982
30580.064387963
28717.4158346387
27760.80016740799
27161.15374980381
26758.02309803469
26479.78882378121
26257.61286364821
26005.04752120403
25559.69167750788
25083.52850339925
23664.76264038677
23782.93218467854
31406.37604265927
30121.56421198677
28107.11462456975
25733.42100541392
23987.84147550786
26838.20612403149
36969.80893470232
47363.1358948233
45196.11834993272
41994.9209630121
39681.11890293742
40717.49469503897
42709.62102316914
44203.83501088194
43031.8599747236
41371.20941876683
40273.32486050835
41217.96018610943
42034.39054534557
42503.3071316615
42792.73328493381
42979.62764719407
43193.14852721823
43349.57106228713
43406.08897522685
43375.88925775665
43181.03669466823
42677.40904146704
40451.96740588652
34080.63191583967
24382.45188968712
31426.20040831143
41565.66252093029
38195.72185668451
44288.88611855664
45106.00711862934
44254.89486272691
35454.20789275568
43545.19225115528
76887.57782735577
76173.84288456234
75432.16443196287
74662.87197058495
73837.81399392562
73009.86633835731
72096.08963251948
71202.78222651867
70171.77087246344
69142.80281186184
68090.78747398863
66875.22874245782
65701.04212537211
64318.10202946013
62931.29104948837
61416.05705684217
59755.67289664201
57999.22338795492
55624.92346626954
50487.24261080217
41635.44728283623
35143.98541192721
30850.60695421045
28979.3404176235
28056.67216603716
27500.68000638577
27154.94606804395
26915.29390157264
26718.84234766769
26418.20006351052
25488.54605407396
26283.86775408687
25147.75493443353
23442.86649592252
23687.36825506192
32660.16083961749
31404.59398610265
30116.23884715855
28127.95701974128
25751.44253276694
23988.49768720231
26835.37032143444
36961.26326522587
47339.35609086121
45192.10190656394
42050.73561424194
39684.4186995749
40714.02016062277
42702.67786563047
44201.6846164966
43039.22339247957
41378.53208708255
40277.66946505838
41204.05844861908
42017.7220251643
42483.18478331636
42772.25537456953
42956.12609149754
43153.37893119264
43318.65961048026
43387.58284747596
43391.50638205782
43256.57094162222
42842.8362831733
40797.3499903569
36671.5837715737
27592.32923978293
32871.59381121711
45046.15412313601
40623.94398658513
34308.10654034215
45315.08344545616
45329.79475374718
45761.60360176731
43961.52800360794
28456.49609213953
41703.05749259215
77599.36965286019
76884.39256723456
76179.84224539805
75427.96004535453
74667.66578632763
73839.13426453897
73010.11857262548
72096.46103000367
71201.43072745686
70170.67167049707
69143.29991489186
68092.77864565546
66874.39388393408
65697.88060075899
64314.31089304384
62927.08148001444
61410.66579677694
59753.2720140748
57996.65705577628
55624.47419230361
50541.2703163904
41804.05952944134
35382.54239666573
31150.20255989191
29301.87851450182
28412.1237032729
27910.11896977991
27598.59523807734
27408.27503529914
27130.04359556287
26990.17409403907
26010.31349920931
26786.48544093446
25575.21437191444
24111.2534164324
23729.47295729405
33983.29338981483
32662.15861130197
31406.90553719063
30117.80454228496
28113.04152083391
25742.80013450953
23988.77578880391
26834.24472571894
36971.34928650105
47362.27464620436
45199.69836813972
42001.95888866814
39691.26633427613
40708.33931818623
42694.72694049116
44198.19939831457
43048.25954716448
41387.60178009631
40283.44195250957
41184.97307842148
41997.56866928744
42457.75745430789
42746.40591301768
42927.38367698488
43107.95093458761
43272.1233478995
43353.22914250423
43390.62495071706
43301.76455323288
42894.92090462896
40126.13930470298
41905.26154915264
35762.90893296654
32650.49414797022
26850.63901253189
44300.36347641913
42832.95417470502
34510.64034236211
44019.62724050416
44504.18562694339
44296.32673805331
44117.85195764651
34251.58932558371
41523.68835977242
78249.83961331435
77602.94874756977
76886.74439324957
76176.95000965732
75427.3085356524
74662.58215280013
73835.18024820958
73007.46429550846
72094.97319078365
71199.72734808443
70168.20399379532
69137.48525358607
68087.88543506016
66871.21949040628
65694.38876390025
64310.66619330581
62923.95286475391
61408.29301117716
59749.2332612314
57992.03264438858
55625.8119974596
50601.59573100996
42006.85245208864
35663.49309802571
31518.48274766115
29691.08161127297
28847.33453088028
28373.84243998623
28139.09316435132
27862.03405057667
27725.01431591
27337.44029861561
25950.96435166406
26701.68919356002
27292.8052127608
25745.30015037908
23827.01257359636
25529.13735626917
23666.21218006829
35354.18794834752
33981.19683975069
32659.90818650018
31406.26696007756
30117.22501542846
28123.04387730567
25747.36293908875
23990.16992766641
26819.32576386325
36952.72718651094
47330.40101330706
45205.18992136591
42021.04785880094
39698.63690847909
40701.38964284906
42684.08618122006
44194.47029376242
43060.59168877392
41399.33591239391
40291.03591815426
41162.36859118049
41970.88818643179
42425.78130715596
42713.35088949113
42892.79998284364
43052.52992177987
43217.48203178369
43304.93085522658
43370.86311961782
43318.63338813446
43182.89022302962
41183.67040402775
42025.08041172442
36616.95888074072
34793.31640275134
28713.59295838819
44331.51015483155
40421.82375984903
30506.14552268623
44062.79554218274
44347.65032889113
44905.56392541136
44249.98871337673
43251.35656662851
30110.4378406637
78904.3086971102
78248.41291683125
77596.97085889822
76886.27784750242
76177.1355612271
75430.13529259806
74665.7164858632
73837.0159850285
73006.96003678128
72095.19366916946
71198.37550996192
70168.74126383748
69137.89135641037
68085.34055281071
66868.05461601233
65690.58446623101
64306.16602612101
62919.0224379862
61402.42813674409
59744.50538404244
57987.20041581126
55627.97172168441
50677.04283880297
42245.97419191068
35994.34245705284
31946.26795095133
30174.59378673339
29353.54078519528
28967.68671565205
28671.95799613928
27887.77944437696
28528.2601233024
28029.33297929412
27955.88837966697
26387.38822402117
27088.59835110214
27644.74558788309
26211.43208156359
24512.98639155454
26069.35950384618
23651.19122306254
36720.48539405511
35351.81966580034
33983.96072504698
32660.25395286554
31406.67938386976
30121.64331450272
28123.14567217058
25750.33784717416
23990.59429658561
26817.2411303941
36947.47523513356
47351.64807154583
45211.12528881917
42026.90766392404
39705.97572505922
40694.5857961588
42669.47613470546
44189.94024138577
43073.57458407505
41413.65132898156
40299.68525840542
41134.05472871343
41937.77719521867
42385.69354359466
42673.18437469109
42846.82229953761
42993.23113787697
43133.85158791624
43254.66864256196
43353.02833128803
43312.51464462306
43350.92511821564
43211.15760975184
41346.19895056989
42680.4333926464
39300.04007590661
35345.72470958935
33926.47030244534
44364.02136404995
42580.49123792216
30079.43214108148
43858.55426062806
43544.24438180507
44137.29658720922
44184.0340672041
42811.27356694681
28646.39691833192
79517.61022750467
78903.69951078975
78249.02382850354
77598.50623560991
76886.99622906603
76173.83212015116
75426.87481308501
74663.36034051333
73833.54297821835
73005.03287663219
72091.86608475664
71196.02571981201
70164.16593047517
69133.4547560416
68081.82259862308
66864.2917978769
65686.07249468297
64301.55258648004
62914.02016080255
61396.69402921519
59739.54210814591
57979.10139888595
55628.60327285543
50761.62665269718
42519.81072645147
36378.85529228955
32461.13548284597
30732.27414920318
30028.8801519202
29403.53431795389
29262.42251837541
28331.6211070904
28744.35980619116
28387.39100887613
28012.85372140447
26958.42490067822
27623.34904513269
27794.64028863976
26575.13717445047
25921.87726640139
24201.95337908231
26552.47193348987
24595.38489778189
38233.33602566388
36725.30249737363
35359.39245118486
33978.39044118873
32660.22251877199
31405.26193298823
30114.12984214278
28129.92214219965
25746.18172288324
23992.56263498422
26796.90236003966
36936.80322241396
47337.30190816929
45222.76038290057
42038.90630844509
39716.93813815154
40684.71116654795
42653.3319515027
44182.74304831046
43091.82307680193
41431.06913342862
40311.69969080305
41101.60199761189
41895.83599356464
42337.13276007165
42619.71610592968
42793.06831402053
42916.16540898772
43045.31976738533
43209.56887857275
43257.78593466881
43348.20534774316
43354.3441237102
43302.85904685332
42297.25384705698
42846.74003682481
39841.68417707823
37917.76598721617
36261.08206274627
44165.33520931626
39371.14816995848
33264.70757542441
29882.40976779705
44690.60629672366
44330.98489417
44394.72129609309
44109.09768416273
43981.26727892004
43663.26566819925
37527.76632321974
80143.36841328251
79516.27611781462
78903.41630746405
78251.26977645239
77597.51610301161
76885.178826747
76176.52087187549
75426.11122864363
74663.18970482185
73833.89632393168
73004.31979415027
72090.01308803995
71193.70431653052
70161.55608447158
69130.75412613853
68077.45841180946
66859.45930901059
65680.72815407337
64295.6138265222
62907.16398639652
61389.75037235377
59732.13861064259
57972.29012089936
55629.54440489905
50857.90649385146
42837.50976220603
36846.04699762643
33043.25588634261
31462.06289002418
30498.58724232239
30135.30283622484
29746.01888780675
29466.08464652829
28914.23690815964
28408.23532189352
27335.34823586633
27912.24290946824
28248.50161560604
27176.17584341188
26487.51695513872