/*--------------------------------*- C++ -*----------------------------------*\
| =========                 |                                                 |
| \\      /  F ield         | OpenFOAM: The Open Source CFD Toolbox           |
|  \\    /   O peration     | Version:  v1912                                 |
|   \\  /    A nd           | Website:  www.openfoam.com                      |
|    \\/     M anipulation  |                                                 |
\*---------------------------------------------------------------------------*/
FoamFile
{
    version     2.0;
    format      ascii;
    class       volScalarField;
    location    "4000";
    object      rDeltaTau;
}
// * * * * * * * * * * * * * * * * * * * * * * * * * * * * * * * * * * * * * //

dimensions      [0 0 -1 0 0 0 0];


internalField   nonuniform List<scalar> 
18230
(
3365.466815599861
3370.995031827405
3428.403165985313
3299.477270195942
3304.897090026868
3304.897090026868
3435.799795985763
3361.179574495405
3234.781637447002
3240.095186300851
3240.095186300851
3240.095186300851
3368.431172535062
3368.431172535062
3295.274092642554
3171.354546516668
3176.563908138089
3176.563908138089
3176.563908138089
3176.563908138089
3302.383502485355
3302.383502485355
3302.383502485355
3230.660875139758
3109.171124035949
3114.278341311852
3114.278341311852
3114.278341311852
3114.278341311852
3114.278341311852
3237.630884789564
3237.630884789564
3237.630884789564
3237.630884789564
3167.314583470351
3048.20698434897
3053.214060109658
3053.214060109658
3053.214060109658
3053.214060109658
3053.214060109658
3053.214060109658
3174.147926264278
3174.147926264278
3174.147926264278
3174.147926264278
3174.147926264278
3105.210375951325
2988.438219949971
2993.347117754567
2993.347117754567
2993.347117754567
2993.347117754567
2993.347117754567
2993.347117754567
2993.347117754567
3139.73826255473
3111.909731631645
3111.909731631645
3111.909731631645
3111.909731631645
3111.909731631645
3044.323897991495
2929.841392107814
2934.654037014282
2934.654037014282
2934.654037014282
2934.654037014282
2934.654037014282
2934.654037014282
2934.654037014282
2934.654037014282
3202.533027805825
3078.17476721052
3050.891893756515
3050.891893756515
3050.891893756515
3050.891893756515
3050.891893756515
2984.631272540681
2872.393521674328
2945.3417789915
2877.111800994393
2877.111800994393
2877.111800994393
2877.111800994393
2877.111800994393
2877.111800994393
2877.111800994393
2877.111800994393
3266.583688361941
3139.73826255473
3017.818399226
2991.070484075015
2991.070484075015
2991.070484075015
2991.070484075015
2991.070484075015
2926.109090726158
2816.07208007287
3004.24861457133
2887.589979403431
2820.697844112151
2820.697844112151
2820.697844112151
2820.697844112151
2820.697844112151
2820.697844112151
2820.697844112151
2820.697844112151
3264.312824474394
3202.533027805825
3078.17476721052
2958.645489437255
2932.422043210799
2932.422043210799
2932.422043210799
2932.422043210799
2932.422043210799
2868.734402672704
2760.854980463598
3064.333586862756
2945.3417789915
2830.97056804258
2765.390043247206
2765.390043247206
2765.390043247206
2765.390043247206
2765.390043247206
2765.390043247206
2765.390043247206
2765.390043247206
3200.30669066117
3200.30669066117
3139.73826255473
3017.818399226
2900.632832781622
2874.923571775293
2874.923571775293
2874.923571775293
2874.923571775293
2874.923571775293
2812.484708502651
2706.720569081959
3125.620258600012
3004.24861457133
2887.589979403431
2775.461341218215
2711.166709065888
2711.166709065888
2711.166709065888
2711.166709065888
2711.166709065888
2711.166709065888
2711.166709065888
2711.166709065888
3204.137740538245
3137.555579079579
3137.555579079579
3078.17476721052
2958.645489437255
2843.757679197669
2818.552521348326
2818.552521348326
2818.552521348326
2818.552521348326
2818.552521348326
2757.337949512403
2653.647616747018
3188.132663772012
3064.333586862756
2945.3417789915
2830.97056804258
2721.040530606093
2658.006577515577
2658.006577515577
2658.006577515577
2658.006577515577
2658.006577515577
2658.006577515577
2658.006577515577
2658.006577515577
3196.48415782701
3141.311510331613
3076.034881450567
3076.034881450567
3017.818399226
2900.632832781622
2787.997724703597
2763.286785635614
2763.286785635614
2763.286785635614
2763.286785635614
2763.286785635614
2703.272499521964
2601.615310536292
3251.895317047452
3125.620258600012
3004.24861457133
2887.589979403431
2775.461341218215
2667.686794711856
2605.888801485859
2605.888801485859
2605.888801485859
2605.888801485859
2605.888801485859
2605.888801485859
2605.888801485859
2605.888801485859
3133.807997869618
3133.807997869618
3079.717166991778
3015.72047201036
3015.72047201036
2958.645489437255
2843.757679197669
2733.331102650585
2709.104691799621
2709.104691799621
2709.104691799621
2709.104691799621
2709.104691799621
2650.267156394082
2550.603245623816
3235.109996887573
3188.132663772012
3064.333586862756
2945.3417789915
2830.97056804258
2721.040530606093
2615.37921050182
2554.792942633195
2554.792942633195
2554.792942633195
2554.792942633195
2554.792942633195
2554.792942633195
2554.792942633195
2554.792942633195
3175.954884839834
3072.360782225116
3072.360782225116
3019.330555874292
2956.588698049372
2956.588698049372
2900.632832781622
2787.997724703597
2679.736375147632
2655.984991960413
2655.984991960413
2655.984991960413
2655.984991960413
2655.984991960413
2598.301133719688
2500.591417278251
3299.812196825325
3171.676467536836
3125.620258600012
3004.24861457133
2887.589979403431
2775.461341218215
2667.686794711856
2564.097265197862
2504.698963365878
2504.698963365878
2504.698963365878
2504.698963365878
2504.698963365878
2504.698963365878
2504.698963365878
2504.698963365878
3161.507568829258
3113.681259646896
3012.118413946192
3012.118413946192
2960.127995955188
2898.61637063664
2898.61637063664
2843.757679197669
2733.331102650585
2627.192524654542
2603.90685486315
2603.90685486315
2603.90685486315
2603.90685486315
2603.90685486315
2547.354052666361
2451.560213017893
3365.808440761832
3235.109996887573
3109.486732879251
3064.333586862756
2945.3417789915
2830.97056804258
2721.040530606093
2615.37921050182
2513.820848233198
2455.587218986155
2455.587218986155
2455.587218986155
2455.587218986155
2455.587218986155
2455.587218986155
2455.587218986155
2455.587218986155
3238.901691527338
3099.517224342409
3052.62868592833
2953.057268574697
2953.057268574697
2902.086270544302
2841.780755526117
2841.780755526117
2787.997724703597
2679.736375147632
2575.678945739747
2552.84985770897
2552.84985770897
2552.84985770897
2552.84985770897
2552.84985770897
2497.405933986628
2403.490404919503
3379.495613425245
3299.812196825325
3171.676467536836
3048.51640478358
3004.24861457133
2887.589979403431
2775.461341218215
2667.686794711856
2564.097265197862
2464.530243365881
2407.438449986426
2407.438449986426
2407.438449986426
2407.438449986426
2407.438449986426
2407.438449986426
2407.438449986426
2407.438449986426
3303.679725357885
3175.393815222881
3038.742376806284
2992.773221498362
2895.154184877154
2895.154184877154
2845.182618180688
2786.059564241291
2786.059564241291
2733.331102650585
2627.192524654542
2525.175436999752
2502.79397814605
2502.79397814605
2502.79397814605
2502.79397814605
2502.79397814605
2448.437190182969
2356.363142077944
3313.230993554162
3313.230993554162
3235.109996887573
3109.486732879251
2988.741573317235
2945.3417789915
2830.97056804258
2721.040530606093
2615.37921050182
2513.820848233198
2416.206120946942
2360.233774496496
2360.233774496496
2360.233774496496
2360.233774496496
2360.233774496496
2360.233774496496
2360.233774496496
2360.233774496496
3323.190587851481
3238.901691527338
3113.131191394981
2979.159192947337
2934.091393625845
2838.386455761916
2838.386455761916
2789.394723706557
2731.4309453346
2731.4309453346
2679.736375147632
2575.678945739747
2475.662193137011
2453.719586417696
2453.719586417696
2453.719586417696
2453.719586417696
2453.719586417696
2400.42861782644
2310.15994321367
3248.26567995506
3248.26567995506
3248.26567995506
3171.676467536836
3048.51640478358
2930.138797369838
2887.589979403431
2775.461341218215
2667.686794711856
2564.097265197862
2464.530243365881
2368.829530340139
2313.954680878918
2313.954680878918
2313.954680878918
2313.954680878918
2313.954680878918
2313.954680878918
2313.954680878918
2313.954680878918
3335.904520116073
3258.029988089687
3175.393815222881
3052.089403328413
2920.744306811114
2876.56018982926
2782.731819374427
2782.731819374427
2734.700709516233
2677.873475818235
2677.873475818235
2627.192524654542
2525.175436999752
2427.119797193148
2405.607437664407
2405.607437664407
2405.607437664407
2405.607437664407
2405.607437664407
2353.361390025922
2264.862689425167
3262.641456052943
3184.574196034373
3184.574196034373
3184.574196034373
3109.486732879251
2988.741573317235
2872.685095460625
2830.97056804258
2721.040530606093
2615.37921050182
2513.820848233198
2416.206120946942
2322.381892490333
2268.583020469527
2268.583020469527
2268.583020469527
2268.583020469527
2268.583020469527
2268.583020469527
2268.583020469527
2268.583020469527
3270.494627564778
3270.494627564778
3194.147047146752
3113.131191394981
2992.244513067072
2863.474810599132
2820.157048852216
2728.168450367085
2728.168450367085
2681.079126976699
2625.366152762976
2625.366152762976
2575.678945739747
2475.662193137011
2379.529212934459
2358.43866437687
2358.43866437687
2358.43866437687
2358.43866437687
2358.43866437687
2307.217049045021
2220.453617083497
3327.894285174002
3198.668094169552
3122.131564739581
3122.131564739581
3122.131564739581
3048.51640478358
2930.138797369838
2816.357936726103
2775.461341218215
2667.686794711856
2564.097265197862
2464.530243365881
2368.829530340139
2276.844992637581
2224.101000460321
2224.101000460321
2224.101000460321
2224.101000460321
2224.101000460321
2224.101000460321
2224.101000460321
2224.101000460321
3206.367281926252
3206.367281926252
3206.367281926252
3131.516712888973
3052.089403328413
2933.573052026541
2807.328245685423
2764.859851815898
2674.67495134028
2674.67495134028
2628.508948016371
2573.888385061741
2573.888385061741
2525.175436999752
2427.119797193148
2332.871777386724
2312.194768996931
2312.194768996931
2312.194768996931
2312.194768996931
2312.194768996931
2261.977499063746
2176.915310866174
3335.245131884163
3262.641456052943
3135.949111930933
3060.913298764295
3060.913298764295
3060.913298764295
2988.741573317235
2872.685095460625
2761.135232084415
2721.040530606093
2615.37921050182
2513.820848233198
2416.206120946942
2322.381892490333
2232.200973174099
2180.491176921883
2180.491176921883
2180.491176921883
2180.491176921883
2180.491176921883
2180.491176921883
2180.491176921883
2180.491176921883
3143.497335221816
3143.497335221816
3143.497335221816
3143.497335221816
3070.114424400954
2992.244513067072
2876.052011790726
2752.282593809238
2710.646913544998
2622.230344451254
2622.230344451254
2576.969556878795
2523.419985354648
2523.419985354648
2475.662193137011
2379.529212934459
2287.129193516396
2266.857616663658
2266.857616663658
2266.857616663658
2266.857616663658
2266.857616663658
2217.624999082104
2134.230696927621
3384.724032775329
3269.848168513885
3198.668094169552
3074.459913657778
3000.895390945388
3000.895390945388
3000.895390945388
2930.138797369838
2816.357936726103
2706.995325572956
2667.686794711856
2564.097265197862
2464.530243365881
2368.829530340139
2276.844992637581
2188.432326641273
2137.73644796263
2137.73644796263
2137.73644796263
2137.73644796263
2137.73644796263
2137.73644796263
2137.73644796263
2137.73644796263
3226.770181374377
3081.860132570408
3081.860132570408
3081.860132570408
3081.860132570408
3009.916102353876
2933.573052026541
2819.658835088947
2698.31626844043
2657.496974063723
2570.814063187504
2570.814063187504
2526.440742038034
2473.9411621124
2473.9411621124
2427.119797193148
2332.871777386724
2242.283523055291
2222.409428101626
2222.409428101626
2222.409428101626
2222.409428101626
2222.409428101626
2174.142155962847
2092.38303620355
3452.418513430836
3318.356894877774
3205.733498543025
3135.949111930933
3014.176385938998
2942.054304848419
2942.054304848419
2942.054304848419
2872.685095460625
2761.135232084415
2653.916985855839
2615.37921050182
2513.820848233198
2416.206120946942
2322.381892490333
2232.200973174099
2145.521888863993
2095.820047022186
2095.820047022186
2095.820047022186
2095.820047022186
2095.820047022186
2095.820047022186
2095.820047022186
2095.820047022186
3291.305585001865
3163.500177818017
3021.431502520008
3021.431502520008
3021.431502520008
3021.431502520008
2950.898139562624
2876.052011790726
2764.371406949948
2645.408106314147
2605.389190258552
2520.405944301475
2520.405944301475
2476.902688272583
2425.432511874902
2425.432511874902
2379.529212934459
2287.129193516396
2198.317179465971
2178.832772648652
2178.832772648652
2178.832772648652
2178.832772648652
2178.832772648652
2131.511917610634
2051.355917846618
3356.962623302858
3384.724032775329
3253.291073409582
3142.87597896375
3074.459913657778
2955.074888175488
2884.366965537666
2884.366965537666
2884.366965537666
2816.357936726103
2706.995325572956
2601.879397897881
2564.097265197862
2464.530243365881
2368.829530340139
2276.844992637581
2188.432326641273
2103.452832219601
2054.725536296261
2054.725536296261
2054.725536296261
2054.725536296261
2054.725536296261
2054.725536296261
2054.725536296261
2054.725536296261
3357.131696701902
3226.770181374377
3101.470762566683
2962.187747568635
2962.187747568635
2962.187747568635
2962.187747568635
2893.037391728063
2819.658835088947
2710.168046029361
2593.537359131516
2554.303127704463
2470.986219903407
2470.986219903407
2428.335968894689
2377.875011642061
2377.875011642061
2332.871777386724
2242.283523055291
2155.21292104507
2136.110561420247
2136.110561420247
2136.110561420247
2136.110561420247
2136.110561420247
2089.717566284935
2011.133252790801
3264.483846817599
3291.139826767507
3318.356894877774
3189.501052362335
3081.250959768382
3014.176385938998
2897.132243309301
2827.810750527123
2827.810750527123
2827.810750527123
2761.135232084415
2653.916985855839
2550.862154801844
2513.820848233198
2416.206120946942
2322.381892490333
2232.200973174099
2145.521888863993
2062.208659038824
2014.436800290452
2014.436800290452
2014.436800290452
2014.436800290452
2014.436800290452
2014.436800290452
2014.436800290452
2014.436800290452
3291.305585001865
3291.305585001865
3163.500177818017
3040.657610359493
2904.105634871211
2904.105634871211
2904.105634871211
2904.105634871211
2836.311168360846
2764.371406949948
2657.027496107216
2542.683685423055
2504.218752651434
2422.535509709222
2422.535509709222
2380.721538132048
2331.250011413785
2331.250011413785
2287.129193516396
2198.317179465971
2112.953844161833
2094.226040608086
2094.226040608086
2094.226040608086
2094.226040608086
2094.226040608086
2048.742712044054
1971.699267441962
3269.899480568883
3200.474359625097
3226.607673301477
3253.291073409582
3126.961816041505
3020.834274282728
2955.074888175488
2840.325728734609
2772.363480908944
2772.363480908944
2772.363480908944
2706.995325572956
2601.879397897881
2500.84524980573
2464.530243365881
2368.829530340139
2276.844992637581
2188.432326641273
2103.452832219601
2021.773195136102
1974.938039500443
1974.938039500443
1974.938039500443
1974.938039500443
1974.938039500443
1974.938039500443
1974.938039500443
1974.938039500443
3226.770181374377
3226.770181374377
3226.770181374377
3101.470762566683
2981.036872901464
2847.162387128638
2847.162387128638
2847.162387128638
2847.162387128638
2780.697223883182
2710.168046029361
2604.928917752173
2492.827142571623
2455.116424168073
2375.034813440414
2375.034813440414
2334.04072365887
2285.539226876259
2285.539226876259
2242.283523055291
2155.21292104507
2071.523376629248
2053.162784909888
2053.162784909888
2053.162784909888
2053.162784909888
2053.162784909888
2008.5712863177
1933.03849749212
3275.543332503063
3205.783804479297
3137.719960416762
3163.340856177919
3189.501052362335
3065.648839256377
2961.602229688949
2897.132243309301
2784.633067386872
2718.003412655828
2718.003412655828
2718.003412655828
2653.916985855839
2550.862154801844
2451.809068436989
2416.206120946942
2322.381892490333
2232.200973174099
2145.521888863993
2062.208659038824
1982.130583466767
1936.213764216121
1936.213764216121
1936.213764216121
1936.213764216121
1936.213764216121
1936.213764216121
1936.213764216121
1936.213764216121
3163.500177818017
3163.500177818017
3163.500177818017
3163.500177818017
3040.657610359493
2922.585169511239
2791.335673655527
2791.335673655527
2791.335673655527
2791.335673655527
2726.173748905081
2657.027496107216
2553.851880149189
2443.948178991787
2406.976886439287
2328.465503372955
2328.465503372955
2288.275219273402
2240.724732231627
2240.724732231627
2198.317179465971
2112.953844161833
2030.905271205145
2012.904691088126
2012.904691088126
2012.904691088126
2012.904691088126
2012.904691088126
1969.187535605588
1895.135781855019
3281.105080392716
3211.316992650062
3142.925298509114
3076.196039624277
3101.314564880313
3126.961816041505
3005.538077702331
2903.531597734263
2840.325728734609
2730.032419006737
2664.709228093949
2664.709228093949
2664.709228093949
2601.879397897881
2500.84524980573
2403.734380820578
2368.829530340139
2276.844992637581
2188.432326641273
2103.452832219601
2021.773195136102
1943.265277908595
1898.248788447177
1898.248788447177
1898.248788447177
1898.248788447177
1898.248788447177
1898.248788447177
1898.248788447177
1898.248788447177
3101.470762566683
3101.470762566683
3101.470762566683
3101.470762566683
3101.470762566683
2981.036872901464
2865.279577952195
2736.603601623066
2736.603601623066
2736.603601623066
2736.603601623066
2672.719361671648
2604.928917752173
2503.77635308744
2396.027626462536
2359.781261214987
2282.809317032308
2282.809317032308
2243.407077719022
2196.788953168261
2196.788953168261
2155.21292104507
2071.523376629248
1991.083599220731
1973.435971655025
1973.435971655025
1973.435971655025
1973.435971655025
1973.435971655025
1930.576015299597
1892.721583627055
1857.976256720607
3357.9974753942
3216.769686659525
3148.349992794178
3081.299312263838
3015.878470219879
3040.504475372856
3065.648839256377
2946.605958531697
2846.599605621827
2784.633067386872
2676.502371575232
2612.460027543088
2612.460027543088
2612.460027543088
2550.862154801844
2451.809068436989
2356.602334137821
2322.381892490333
2232.200973174099
2145.521888863993
2062.208659038824
1982.130583466767
1905.162037165289
1861.028223967821
1861.028223967821
1861.028223967821
1861.028223967821
1861.028223967821
1861.028223967821
1861.028223967821
1861.028223967821
3079.336622017327
3040.657610359493
3040.657610359493
3040.657610359493
3040.657610359493
3040.657610359493
2922.585169511239
2809.097625443328
2682.944707473594
2682.944707473594
2682.944707473594
2682.944707473594
2620.313099678086
2553.851880149189
2454.682699105334
2349.046692610329
2313.51104040685
2238.048350031675
2238.048350031675
2199.4187036461
2153.714659968884
2153.714659968884
2112.953844161833
2030.905271205145
1952.04274433405
1934.741148681397
1934.741148681397
1934.741148681397
1934.741148681397
1934.741148681397
1892.721583627055
1855.609395712799
1821.545349726085
3425.157424902084
3292.154387641373
3153.695771234828
3086.617639994292
3020.881678690037
2956.743598254784
2980.886740561623
3005.538077702331
2888.829371109507
2790.783927080222
2730.032419006737
2624.021932916894
2561.235321120674
2561.235321120674
2561.235321120674
2500.84524980573
2403.734380820578
2310.394445233158
2276.844992637581
2188.432326641273
2103.452832219601
2021.773195136102
1943.265277908595
1867.805918789499
1824.537474478255
1824.537474478255
1824.537474478255
1824.537474478255
1824.537474478255
1824.537474478255
1824.537474478255
1824.537474478255
3022.817193163102
3018.957472566007
2981.036872901464
2981.036872901464
2981.036872901464
2981.036872901464
2981.036872901464
2865.279577952195
2754.0172798464
2630.337948503523
2630.337948503523
2630.337948503523
2630.337948503523
2568.934411449104
2503.77635308744
2406.551665789543
2302.986953539538
2268.148078830245
2194.165049050661
2194.165049050661
2156.292846711863
2111.484960753807
2111.484960753807
2071.523376629248
1991.083599220731
1913.767396405931
1896.80504772686
1896.80504772686
1896.80504772686
1896.80504772686
1896.80504772686
1896.80504772686
1855.609395712799
1819.224897757646
1819.224897757646
1785.82877424126
1785.82877424126
3453.358841281467
3357.9974753942
3227.602340824875
3091.858599249832
3026.0957254846
2961.648704598075
2898.768233583121
2922.437980942768
2946.605958531697
2832.185657950497
2736.062673608061
2676.502371575232
2572.570522467543
2511.015020706543
2511.015020706543
2511.015020706543
2451.809068436989
2356.602334137821
2265.092593365841
2232.200973174099
2145.521888863993
2062.208659038824
1982.130583466767
1905.162037165289
1831.182273323038
1788.762229880643
1788.762229880643
1788.762229880643
1788.762229880643
1788.762229880643
1788.762229880643
1788.762229880643
1788.762229880643
3040.058435897939
2963.546267806963
2959.762228005889
2922.585169511239
2922.585169511239
2922.585169511239
2922.585169511239
2922.585169511239
2809.097625443328
2700.016941025882
2578.762694611297
2578.762694611297
2578.762694611297
2578.762694611297
2518.563148479514
2454.682699105334
2359.364378225042
2257.83034660739
2223.674587088476
2151.142204951629
2151.142204951629
2114.012594815551
2070.083294856674
2070.083294856674
2030.905271205145
1952.04274433405
1876.242545496011
1859.612791889078
1859.612791889078
1859.612791889078
1859.612791889078
1859.612791889078
1859.612791889078
1859.612791889078
1819.224897757646
1783.553821331026
1783.553821331026
1750.812523765941
1750.812523765941
3385.645922824968
3385.645922824968
3292.154387641373
3164.316020416544
3031.233920833169
2966.76051518098
2903.577161370662
2841.929640767766
2865.135275434086
2888.829371109507
2776.65260583382
2682.414385890256
2624.021932916894
2522.127963203474
2461.779432065238
2461.779432065238
2461.779432065238
2403.734380820578
2310.394445233158
2220.679013103766
2188.432326641273
2103.452832219601
2021.773195136102
1943.265277908595
1867.805918789499
1795.276738551998
1753.688460667297
1753.688460667297
1753.688460667297
1753.688460667297
1753.688460667297
1753.688460667297
1753.688460667297
1753.688460667297
1753.688460667297
3056.808948983033
2980.449446958764
2905.437517457806
2901.727674515577
2865.279577952195
2865.279577952195
2865.279577952195
2865.279577952195
2865.279577952195
2754.0172798464
2647.075432378316
2528.198720207154
2528.198720207154
2528.198720207154
2528.198720207154
2469.179557332857
2406.551665789543
2313.102331593178
2213.559163340579
2180.073124596545
2108.962946031008
2108.962946031008
2072.561367466227
2029.493426330072
2029.493426330072
1991.083599220731
1913.767396405931
1839.453475976481
1823.149795969685
1823.149795969685
1823.149795969685
1823.149795969685
1823.149795969685
1823.149795969685
1823.149795969685
1823.149795969685
1783.553821331026
1748.582177775515
1748.582177775515
1748.582177775515
1716.482866437197
1716.482866437197
3328.231153855095
3319.26070865193
3319.26070865193
3227.602340824875
3102.270608251513
2971.797961601146
2908.58874037351
2846.64427585359
2786.205530164476
2808.956152386359
2832.185657950497
2722.20843709198
2629.818025382604
2572.570522467543
2472.674473728896
2413.509247122783
2413.509247122783
2413.509247122783
2356.602334137821
2265.092593365841
2177.136287356633
2145.521888863993
2062.208659038824
1982.130583466767
1905.162037165289
1831.182273323038
1760.075233874508
1719.302412418918
1719.302412418918
1719.302412418918
1719.302412418918
1719.302412418918
1719.302412418918
1719.302412418918
1719.302412418918
1719.302412418918
3073.672779522948
2996.871518610816
2922.009261724279
2848.468154370398
2844.831053446645
2809.097625443328
2809.097625443328
2809.097625443328
2809.097625443328
2809.097625443328
2700.016941025882
2595.171992527761
2478.626196281524
2478.626196281524
2478.626196281524
2478.626196281524
2420.764271894958
2359.364378225042
2267.747383914881
2170.156042490763
2137.326592741711
2067.61073140295
2067.61073140295
2031.922909280614
1989.699437578502
1989.699437578502
1952.04274433405
1876.242545496011
1803.385760761256
1787.401760754593
1787.401760754593
1787.401760754593
1787.401760754593
1787.401760754593
1787.401760754593
1787.401760754593
1787.401760754593
1787.401760754593
1748.582177775515
1714.296252721094
1714.296252721094
1714.296252721094
1682.826339644311
1682.826339644311
3330.483890875602
3262.971719465779
3254.177165345029
3254.177165345029
3164.316020416544
3041.441772795601
2913.527413334456
2851.55758860148
2790.827721425088
2731.574049180859
2753.87858077094
2776.65260583382
2668.831801070569
2578.252966061376
2522.127963203474
2424.190660518525
2366.185536394885
2366.185536394885
2366.185536394885
2310.394445233158
2220.679013103766
2134.447340545718
2103.452832219601
2021.773195136102
1943.265277908595
1867.805918789499
1795.276738551998
1725.563954778929
1685.590600410704
1685.590600410704
1685.590600410704
1685.590600410704
1685.590600410704
1685.590600410704
1685.590600410704
1685.590600410704
1685.590600410704
1685.590600410704
1685.590600410704
3042.379512895261
3013.404685806811
2938.109331971388
2864.714962474783
2792.615837618037
2789.050052398671
2754.0172798464
2754.0172798464
2754.0172798464
2754.0172798464
2754.0172798464
2647.075432378316
2544.286267184079
2430.025682628945
2430.025682628945
2430.025682628945
2430.025682628945
2373.29830577937
2313.102331593178
2223.281748936157
2127.603963226239
2095.418228178148
2027.069344512696
2027.069344512696
1992.081283608446
1950.685723116178
1950.685723116178
1913.767396405931
1839.453475976481
1768.02525564829
1752.354667406463
1752.354667406463
1752.354667406463
1752.354667406463
1752.354667406463
1752.354667406463
1752.354667406463
1752.354667406463
1752.354667406463
1714.296252721094
1714.296252721094
1680.682600706954
1680.682600706954
1680.682600706954
1649.829744749324
3265.180285172159
3265.180285172159
3198.991881829195
3190.369769946107
3190.369769946107
3102.270608251513
2981.80565960353
2856.399424837703
2795.644694707334
2736.105609240283
2678.013773706724
2699.880961540137
2722.20843709198
2616.501765755459
2527.698986334683
2472.674473728896
2376.65751031228
2319.789741563613
2319.789741563613
2319.789741563613
2265.092593365841
2177.136287356633
2092.595431907567
2062.208659038824
1982.130583466767
1905.162037165289
1831.182273323038
1760.075233874508
1691.729367430323
1652.53980432422
1652.53980432422
1652.53980432422
1652.53980432422
1652.53980432422
1652.53980432422
1652.53980432422
1652.53980432422
1652.53980432422
1652.53980432422
1652.53980432422
1652.53980432422
2977.497156791554
2982.725012642412
2954.318319418443
2880.499345069989
2808.54408085763
2737.858664331409
2734.362796469286
2700.016941025882
2700.016941025882
2700.016941025882
2700.016941025882
2700.016941025882
2595.171992527761
2494.398301160862
2382.378120224455
2382.378120224455
2382.378120224455
2382.378120224455
2326.763044881736
2267.747383914881
2179.687989153095
2085.886238457097
2054.331596253086
1987.322886777152
1987.322886777152
1953.02086628279
1912.436983447234
1912.436983447234
1876.242545496011
1803.385760761256
1733.358093772833
1768.02525564829
1717.994771967121
1717.994771967121
1717.994771967121
1717.994771967121
1717.994771967121
1717.994771967121
1717.994771967121
1717.994771967121
1717.994771967121
1680.682600706954
1680.682600706954
1647.728039908779
1647.728039908779
1647.728039908779
1617.480141911102
3228.925065154295
3201.157142325646
3201.157142325646
3136.266550812937
3127.813499947164
3127.813499947164
3041.441772795601
2923.338881964246
2800.39159297814
2740.828132066013
2682.456479647336
2625.503699712475
2646.942119156997
2668.831801070569
2565.197809564176
2478.136261112434
2424.190660518525
2330.056382659097
2274.30366819962
2274.30366819962
2274.30366819962
2220.679013103766
2134.447340545718
2051.564148928987
2021.773195136102
1943.265277908595
1867.805918789499
1795.276738551998
1725.563954778929
1658.558203363062
1626.037454277511
1620.13706306296
1620.13706306296
1620.13706306296
1620.13706306296
1620.13706306296
1620.13706306296
1620.13706306296
1620.13706306296
1620.13706306296
1620.13706306296
1620.13706306296
1620.13706306296
3031.632547439365
2919.114859599563
2924.240208472953
2896.390509233767
2824.018965754891
2753.474589076108
2684.175161109225
2680.74783967577
2647.075432378316
2647.075432378316
2647.075432378316
2647.075432378316
2647.075432378316
2544.286267184079
2445.488530549864
2335.664823749466
2335.664823749466
2335.664823749466
2335.664823749466
2281.140240080133
2223.281748936157
2136.949008973623
2044.986508291271
2014.050584561849
1948.355771350149
1948.355771350149
1914.726339492931
1874.938219065915
1874.938219065915
1839.453475976481
1803.385760761256
1699.370680169444
1733.358093772833
1684.308599967766
1684.308599967766
1684.308599967766
1684.308599967766
1684.308599967766
1684.308599967766
1684.308599967766
1684.308599967766
1684.308599967766
1684.308599967766
1647.728039908779
1647.728039908779
1647.728039908779
1615.419646969391
1615.419646969391
1615.419646969391
1615.419646969391
3232.13428373649
3165.612808974799
3138.389355221221
3138.389355221221
3074.771128247977
3066.483823477611
3066.483823477611
2981.80565960353
2866.018511729652
2745.481953900137
2687.086403986288
2629.859293771898
2574.02323501223
2595.041293291173
2616.501765755459
2514.899813298211
2429.545354031798
2376.65751031228
2284.369002606958
2229.709478627079
2229.709478627079
2229.709478627079
2177.136287356633
2092.595431907567
2011.337400910772
1982.130583466767
1905.162037165289
1831.182273323038
1760.075233874508
1691.729367430323
1658.558203363062
1594.154366938737
1588.369669669569
1588.369669669569
1588.369669669569
1588.369669669569
1588.369669669569
1588.369669669569
1588.369669669569
1588.369669669569