/*--------------------------------*- C++ -*----------------------------------*\
| =========                 |                                                 |
| \\      /  F ield         | OpenFOAM: The Open Source CFD Toolbox           |
|  \\    /   O peration     | Version:  v1912                                 |
|   \\  /    A nd           | Website:  www.openfoam.com                      |
|    \\/     M anipulation  |                                                 |
\*---------------------------------------------------------------------------*/
FoamFile
{
    version     2.0;
    format      ascii;
    class       volScalarField;
    location    "4000";
    object      rho;
}
// * * * * * * * * * * * * * * * * * * * * * * * * * * * * * * * * * * * * * //

dimensions      [1 -3 0 0 0 0 0];


internalField   nonuniform List<scalar> 
18230
(
0.3216744316620551
0.1998745221570316
0.3514867289522339
0.319249634321601
0.1053175796929788
0.2010075570127175
0.2696917752417909
0.3477486296127175
0.3184132090653196
0.3485688115849565
0.1197812744435565
0.2025140048347276
0.1631465538099475
0.2705761000532454
0.346474371318216
0.3174077934738113
0.401601714178637
0.3426921345815389
0.1290899172299316
0.2047036864905703
0.2574156970089654
0.1678340866293087
0.2699515846828016
0.3452200366219121
0.3164471462434064
0.4101724671083923
0.4029522741607803
0.3401182131803304
0.1345771186606674
0.2079445210866907
0.4631380347185894
0.2635146376889633
0.169864390634908
0.270777094628926
0.3440067852187463
0.3152126865454784
0.4166901681647738
0.4108722571375384
0.401672528213334
0.3412527833706108
0.1407345459975665
0.2117746851158627
0.585411668373082
0.4639096689113349
0.2668081237535286
0.1719926111117117
0.2711157942051455
0.3429260961719015
0.3142831497406328
0.4251265145078141
0.4176569688394604
0.4099646042187208
0.4022689711022441
0.3426498757811702
0.1472707283718679
0.2153180753132631
0.6021843423011481
0.5860110914664991
0.4656017092880561
0.2709967530788984
0.1749545668769453
0.2721169435383937
0.3417904774381681
0.313922576671925
0.4347165653577681
0.4262613944029962
0.416479706142852
0.4101437331508431
0.4019537031692187
0.3443084980268847
0.1542803323318903
0.2195575573247322
0.6148815683255999
0.6029171962372526
0.5867726684465421
0.4676469124945407
0.2761845152389251
0.1784332160916589
0.27295569810641
0.3408113963164385
0.3136873824872237
0.4454964971198511
0.4358432060980321
0.4248367958341788
0.4170151475959591
0.409821594000859
0.4022110902670168
0.34704652318968
0.1622535072526479
0.2237232615948687
0.6190043636898829
0.6154180183235526
0.6033954286256163
0.5870006703826103
0.468520867043863
0.2819168951139165
0.1818970178402223
0.2740131796238106
0.3401191990013276
0.3135461319406768
0.4583932454655725
0.4469857810642622
0.4344354654838061
0.4253138612312821
0.4162367806769106
0.4097641733756021
0.4020926586927545
0.3498624415455717
0.1709007638338386
0.2284119339954984
0.6199366841348196
0.6195725982770354
0.6157064838368909
0.6036841287290663
0.5874969180501656
0.4709843966115153
0.2891800798543262
0.1856653491020447
0.2752430945608463
0.3393272138250421
0.3133581370221062
0.472455291030219
0.4599280533959097
0.4450716406323768
0.4348228640117989
0.4247191912761479
0.4163926407960184
0.4096302067060523
0.4023595768837482
0.3529678733958709
0.1805045762788976
0.2333360732418476
0.6183878426968686
0.6205270536948941
0.6199493095656569
0.6160321512052624
0.6040872130406484
0.5878137915723954
0.4720556108132575
0.2970069128621173
0.1901904723079873
0.2767483292050791
0.3385348875342264
0.3131987815475293
0.4960203161641732
0.4741086545967675
0.4578656561608292
0.4457366169846309
0.4342775771760748
0.4248310455381906
0.4161335186091867
0.4095974235068271
0.4024196288090706
0.3564981856562968
0.1910997577562839
0.238615203053194
0.6155946045566582
0.619428126088339
0.6208983613218474
0.620290510504839
0.6163586632082556
0.6045154018149761
0.5884344600212696
0.4744305960216944
0.3056787153882348
0.1949022698335689
0.2783050759924953
0.337770047547243
0.3135036761400788
0.5514164575577478
0.4973478845709624
0.4718733905557991
0.458548653955291
0.4449671478508047
0.434448553296212
0.4246417258389809
0.4161260387075018
0.4095471228973273
0.4027300253686584
0.3606320698117938
0.20264345310586
0.2461513104658285
0.6135243809000259
0.6165793527726359
0.6195162652575531
0.6212464939530761
0.6206386155333196
0.616733540222331
0.6049408918665965
0.5891354738928111
0.4773737056025619
0.3156442390031649
0.1992508717975373
0.2804721757734516
0.3378238101170018
0.3151008585682846
0.6277936299837655
0.5514560089073565
0.4952442831433025
0.472551557196056
0.4577740251092959
0.4452098637454776
0.4341016661991698
0.4246238932300091
0.4160898707338051
0.4096073615188868
0.4029324220444858
0.3647522285107638
0.2152681669096361
0.2543445560865253
0.6105565783114436
0.614469319729269
0.6167284512514019
0.619950342536805
0.6215910843372667
0.6210068569322623
0.6171525361775893
0.6054936337827462
0.5897046419312035
0.4802417819194059
0.3263879325983529
0.2018790981546655
0.283213860722672
0.338137948083
0.3182516288350616
0.7280075727561105
0.6280481597781781
0.5502547751045301
0.4963300721379649
0.4717550076763879
0.4580183306791192
0.4449105529428311
0.4341728259840988
0.4246048805239827
0.4161203343802307
0.4096647258337194
0.4032924341472147
0.3687797450136439
0.2285863006016064
0.2633622775610105
0.6054703796006404
0.6113746332418377
0.6147400186217669
0.6171857876259597
0.6202671100081709
0.6219695118522199
0.6213924865443827
0.6175832109245523
0.6060517639251363
0.5907407539488888
0.4833646808840352
0.3381488873658521
0.2069905342643724
0.2866308060455866
0.3389751106074991
0.3233838539634688
0.7842041578976677
0.7279112586321458
0.627087930663189
0.5505908639987779
0.4950625209456853
0.4721195414519441
0.4576116815956059
0.4449435593604843
0.4340809474920089
0.4246431243461848
0.4161898686911604
0.4097716034680708
0.403523613818947
0.3730864846745801
0.2425942696428455
0.2733473813055523
0.5968677428500581
0.6064066743602392
0.6117878539702239
0.6150609694846968
0.6174675159527667
0.6206603889776398
0.6223611561503294
0.6218231292133038
0.6181179171261315
0.606725298950588
0.5915724465854563
0.4878724685693802
0.3497750828713309
0.2133041781454834
0.2930650932624845
0.3399420601379218
0.3310626190422702
0.8081867648347321
0.7834056426952102
0.7271022226799014
0.6267627029050999
0.5506366526574357
0.4957680922295679
0.4715003371193146
0.4576578932877968
0.4448203028529208
0.4341630268103843
0.424743614766639
0.4163073425857072
0.4099424517685967
0.4040455760470942
0.3771583419736982
0.2569068778685141
0.2842510972430895
0.5860768394993168
0.5978925123110918
0.6067712545644658
0.6121560716878772
0.6156671766346421
0.6179627772485262
0.6210487160855385
0.6228186046125546
0.622268624582152
0.6186948969654454
0.607465325452517
0.5932056159444055
0.4918370391856526
0.3619482332270927
0.220360738685225
0.3044572628295966
0.341006721859751
0.341150587940503
0.8255859594188603
0.8072770911499096
0.7828702408153885
0.7269804860262099
0.6267514722261615
0.5502286580423388
0.4949708007104791
0.4717101030022172
0.4574383179550063
0.4448742664805972
0.4342013040956532
0.4248643022460712
0.416465279586295
0.4101100897528033
0.4043632078395932
0.3812786218050716
0.2714233129742217
0.2963890521839865
0.5972572005667622
0.5871023110379032
0.5982101281374992
0.6071811579460326
0.6125472288698202
0.6157940566214583
0.6182692942950798
0.6214956157866525
0.6232763063261104
0.6228003345335454
0.6193319525941164
0.6083677187468193
0.5940068800176301
0.4979966830281089
0.3742276732155035
0.2282004035434512
0.3196519257846605
0.3441424167413472
0.3541542076133924
0.8419485175652354
0.8247425202473873
0.8069349020608745
0.7824783860033495
0.7265465083827493
0.6262353819418762
0.5499180196122728
0.4954498270118544
0.4713176534563783
0.4574368166673529
0.4448906226805101
0.4343278185547532
0.4250543991089158
0.4166873122104156
0.4105517673028171
0.4050619212104337
0.3851535906369521
0.2856179163673899
0.3100059452227705
0.6144534560191791
0.5986314195338178
0.5875967523387248
0.5986532254303076
0.6075302768295052
0.6128872549234247
0.6165205582890384
0.618783757734097
0.6219747539788939
0.6239622729822077
0.6233849808893971
0.6200679971478203
0.6093562446317963
0.5963295155922058
0.5032391095774833
0.3872139471598376
0.2363706716362982
0.3387859676851917
0.3496624001553471
0.3703345366707568
0.8567985035305918
0.8411442856348901
0.8242579916702997
0.8064944737161378
0.7820036051938063
0.7262794154201327
0.6266822439480157
0.5498760746149692
0.4947365041839437
0.4714424919902266
0.4573779758335487
0.4450046354744897
0.4344972970364425
0.425309313554972
0.4170098294936951
0.4107639937519872
0.4055838221168384
0.3888776640096598
0.2992194175830281
0.3250025264393644
0.6269838967789594
0.6157880049111779
0.5989255416079576
0.5880335373574055
0.5991273241452528
0.6079588855641306
0.6134386553245911
0.6166498690075092
0.6193348833282861
0.6225279215950412
0.624373734127084
0.6241164003572235
0.6209305070218381
0.610639387988236
0.5972927518003186
0.5102470424668143
0.4006563592132716
0.2466872593973712
0.3641166282484952
0.3585984230038539
0.3895509192839948
0.8703957014527814
0.8558685604369701
0.8406359960900185
0.8238750233075705
0.8061052864913301
0.7816637885779912
0.7257672661957342
0.6258498225930186
0.5498561541917079
0.4952427138259715
0.4712454713761011
0.4574031972990755
0.4451313379662976
0.4347245248827372
0.4256778731089967
0.4174723419232081
0.4112873589032826
0.4064631986550413
0.3923720468497905
0.3117538238577006
0.3419154114888119
0.6107828233449055
0.6282822386749011
0.6161178133278153
0.5995136106950326
0.5884573453617062
0.599487068164849
0.6083650492766585
0.613742867929236
0.6174298607127767
0.6198642092527943
0.6232004602063633
0.6254577717698888
0.6248013284316531
0.6219975003850096
0.6120128986483178
0.5998664771123838
0.5172421825786506
0.4116651506578146
0.2584712048766061
0.3925221652595406
0.3701357747996831
0.4117624752138921
0.8844237881774695
0.869550757499622
0.8555445472087938
0.8401882296538602
0.8233713980272601
0.8055297666265715
0.7811042309795385
0.725509807497483
0.6258276742128503
0.5494955033835379
0.4947190776575153
0.4713409083375221
0.4574011986030584
0.4453516134057507
0.4350627186930673
0.4261442952348379
0.4181045462414338
0.4119493809401583
0.407268734993583
0.3956450800358213
0.3233713514982046
0.3603089861541716
0.5902443062751992
0.6124285439429435
0.6287090127707734
0.6166362034512084
0.5998190669177775
0.5889065103626916
0.5999001792351767
0.6088207186695731
0.6144406648566357
0.6176931502602302
0.6205643808841015
0.6239941059168056
0.6256755431366878
0.6260760651511149
0.6232978282569747
0.6136806608046053
0.6016667861375368
0.5261895347979475
0.4198237221115471
0.2697285199472065
0.4213473649025306
0.3845378922781968
0.4366030339779665
0.8954651609404902
0.883114330077348
0.869213772363432
0.8551204902863039
0.8398069807822481
0.8229595752521651
0.8050043403381537
0.7805478141689428
0.7247614408665447
0.6254936312873846
0.5494656009033012
0.4951994718244926
0.4712302122615895
0.4575294719126416
0.4456383325306382
0.4355088373115065
0.426783558828873
0.4189766355229302
0.4128651230947412
0.4083739305914006
0.3986915482422015
0.3339729211076893
0.3784267831806385
0.5791701841035249
0.5921604779591381
0.613377455825195
0.6292839858770042
0.6171709208293534
0.6004589451483426
0.5893873587646534
0.6004297404924787
0.6093341036184127
0.6147612102047175
0.6186185629385458
0.6213563112040118
0.6246824830976645
0.6272090657610632
0.626783602460094
0.6247098351042071
0.6157251690363121
0.6041892846607119
0.5357502925756727
0.4287740931754512
0.2816006624323272
0.4502393178293587
0.4018654841114808
0.4628509609752411
0.9081787644176543
0.8946281550134247
0.8828512855389541
0.8687826652153707
0.8547274993735107
0.8393245675296882
0.8224206814383309
0.8044823637238812
0.7799889488753362
0.7245481689410423
0.6251925266554571
0.5493668604167117
0.4947935678716387
0.4714528815197277
0.4576472628440532
0.4460222961825041
0.4361122435642464
0.4276413589469188
0.4201401354899452
0.4140436566055977
0.4096003879882143
0.4014804994249636
0.3436289006821647
0.3965357884405924
0.6056401647266297
0.5812584046286421
0.5929920716228531
0.6135915266241356
0.6298416537562982
0.6176766649540256
0.6009187548100836
0.5899163999086992
0.6009055205470503
0.6098947015753071
0.6156650666683385
0.6192654099314124
0.6220439558132335
0.6260304825063208
0.627687221864543
0.6281960685964041
0.626127051610976
0.617750539239172
0.6072129638864607
0.5461512779398772
0.4400891133572661
0.294528662085066
0.4806092721461984
0.421740347511644
0.4882224609029377
0.9180697515426317
0.9068210973918941
0.8943325826342294
0.882379805252996
0.868353039954742
0.8542298596736467
0.8388337276771738
0.8218572068730498
0.8039163676755718
0.7793055823463672
0.7238828047509859
0.6249573993053326
0.549353189683862
0.4953922048310648
0.4714625085723447
0.4579608382991635
0.4465335208625223
0.4369234796808522
0.4287649657822105
0.4216246869501964
0.415533907090131
0.4110105114634496
0.4040978969015956
0.3520815024275189
0.4157263154044318
0.6398664518615466
0.6088824524958937
0.5821585362269508
0.5938053877886378
0.614791984055167
0.6304469488117785
0.6182341925414483
0.6015250690231416
0.5904952363844805
0.6015208249149708
0.6105178449517047
0.6162621117036733
0.6201179937617199
0.6231697985348624
0.6265883052141539
0.6291424313545947
0.6295252556931661
0.6278575979715154
0.6202011506006135
0.6103438142223687
0.5559592692732895
0.4528693980592091
0.308304169940679
0.5115816378889906
0.4433295048111116
0.5156829605372051
0.927957777604316
0.9168838267339795
0.9062623764973194
0.8937954349904084
0.8818928039068193
0.8678327410832634
0.8536984941478186
0.8382195073667194
0.8212408787258673
0.8032171169810032
0.7786837712696755
0.7234167851678055
0.6247767015154365
0.5493034322358249
0.4951351672513115
0.4718545603978675
0.4582605071445788
0.4472579980656847
0.4379870034778925
0.4301970430249304
0.4234567899748307
0.4173980101713616
0.4127409604736322
0.4066005756089988
0.3592561084925465
0.4361853276018315
0.6640625321925044
0.6425411765925427
0.6089834674844568
0.5829228406128159
0.5946153792247767
0.6149238119289051
0.6311067714138991
0.6189213430108976
0.6020997903662416
0.5911440951773559
0.602156826294043
0.6112487171859097
0.6171212125797619
0.6213510476917576
0.6242814067452004
0.6277610116566467
0.6304700957164349
0.6310649719714299
0.6298049843376657
0.6226965753457505
0.6133582860922648
0.5652077107432815
0.4667806025602382
0.322497718624927
0.5457148869955033
0.4669967430669882
0.5419388282578211
0.9379432470543312
0.9268027996222983
0.9162328873824949
0.9056829417299928
0.8933015711281528
0.8812983580313867
0.8672731021836564
0.8531352481685006
0.8376092247302633
0.8205818458545534
0.8025673884198191
0.7779263718477893
0.7228039935345826
0.6246700718944271
0.5494982579210322
0.4959257417925592
0.4720819841452473
0.4588472781853068
0.4481819283662549
0.4393481585387458
0.431953514189534
0.4256500366689138
0.4197447630152004
0.4149144105219755
0.4091556236623838
0.365485490520426
0.4570936565361109
0.556365359494305
0.6673019806779458
0.6433713287859415
0.6099714565106649
0.5837649115394953
0.5953622480865044
0.616292442854664
0.6318330131421496
0.6196304039833846
0.6029300701637142
0.5918721767717398
0.6029243998142139
0.6121513955308608
0.6181350978722235
0.6221586300412797
0.6251059295158736
0.6291064923564851
0.6319176530189655
0.6327870526466793
0.6316806837089629
0.6250207182089692
0.6161607410012842
0.5733260891708618
0.4807669499749849
0.337015109600405
0.5752926729535316
0.4898423296486378
0.5653654273966968
0.9464991932086213
0.9367004592257685
0.9261279773353163
0.9157158729418782
0.9051121743520346
0.8927448783298366
0.8807506696660858
0.8666329017424904
0.8524617118712733
0.8369651773770139
0.8198562639846025
0.801803761647237
0.7772357321001795
0.7222202375969334
0.6245095679527074
0.5496231818849026
0.4960068217523741
0.472741599450925
0.4595840611757188
0.4493897367607292
0.4410011874253084
0.4340373531639173
0.428269329957818
0.4226138580263232
0.4176347278229089
0.4118686106579889
0.3720585520601093
0.4797453298495083
0.4511533259220705
0.5620933518215865
0.6684631071038325
0.6444283195715046
0.610994850898176
0.5845229206408606
0.5962387734687462
0.6165173415799281
0.6326603391616558
0.620454688803584
0.6036593358022652
0.5927333384010073
0.6037776603454827
0.613031279426097
0.6194489487779528
0.6231312798241666
0.6265016324474814
0.6304703481777439
0.6335498206012702
0.6343595989519369
0.6333076402074682
0.627048710831221
0.6185911545094746
0.580516491569791
0.4937741388490703
0.3522417358019982
0.6164901639246094
0.5090665024708311
0.5776742385092609
0.9552710651745979
0.9452085244316093
0.9360082532123695
0.9254952568353015
0.9150861589472421
0.9044818907935237
0.8920624467460846
0.8800591373201561
0.8659426732357757
0.8517191731432047
0.8361929262339781
0.819099612804211
0.8009825349380255
0.7763952491499582
0.7216436886672499
0.6245306279710026
0.5500013159820748
0.4969418748734412
0.4735064238672487
0.4606183073471823
0.4508346190917694
0.4429542740540949
0.4365368916252824
0.4313075692877366
0.4261079420979876
0.420817191573117
0.4149474707513579
0.3782563869802003
0.5013560508522126
0.4174503987669588
0.4542682955186571
0.5628684605576093
0.6694653022743817
0.6453661999530843
0.611726336867647
0.585531409773159
0.5971808235075764
0.6180387444549903
0.6335840682426999
0.6214004803029665
0.6047087913468544
0.5937057305123302
0.6047633733717609
0.6144813599415905
0.6202177503192151
0.6245047026927766
0.6278676125807976
0.6320127942999492
0.634966975884077
0.6355575073772369
0.634490625094934
0.628718788382736
0.6208219871930529
0.5867718263924563
0.5054411970376077
0.3699496382220906
0.6447429105864558
0.5265862159336272
0.5765023562468947
0.9631203823366685
0.9539280921304886
0.9445265777923685
0.9354726729746348
0.9249487292455413
0.9143889448357442
0.9037716467043726
0.8913673030174468
0.8793288614270528
0.8651808628276946
0.850954530602271
0.8353862215138885
0.818282386923431
0.8001461343744202
0.7755551788643271
0.7211154307078288
0.6246564902235177
0.5505445385068704
0.4976895282296516
0.4746335547552832
0.4618787747174729
0.4525573557843844
0.4452815909001208
0.4394364758518841
0.4348324933286231
0.4301580075097122
0.4245619903925901
0.418652951603644
0.384668371886132
0.5091283117092685
0.4394596073372296
0.418060914138676
0.4530220388197409
0.5644322617460772
0.6707217796953628
0.6465576626112012
0.6128968237348764
0.5865374957650586
0.5982011679670731
0.6186067829714013
0.634663382451371
0.6224923200801674
0.6057472190534827
0.5948221426505792
0.605863762883439
0.6153373199616288
0.6215715694495538
0.6258854892159322
0.6294370382431507
0.6333094345398671
0.6359803409950729
0.6362785243197152
0.6351834843307242
0.630195467937711
0.6228003597344774
0.5923599231427794
0.5160871591978149
0.3924338898848412
0.6464355582187008
0.5176092027239857
0.568720565700514
0.5786667995365967
0.9710923762585166
0.9617216645983693
0.9532266405381193
0.9439061115512596
0.9348017366094984
0.9242846864937444
0.9137756133756105
0.9030680035630837
0.8906004611211752
0.8785482808505587
0.8643764378034003
0.8501125265646179
0.8345049369841978
0.8173900458287722
0.7992535018262937
0.7746741717411495
0.7205059029229152
0.6249021245787776
0.5513160359923348
0.4990296469682979
0.4759933483751586
0.4634435708443669
0.4546382813083967
0.4479843780068701
0.4428446224627574
0.4387749381080859
0.4346774223961816
0.4289551046288909
0.422899921224464
0.3864330542120121
0.4346456821298148
0.4682483627962793
0.4399897206309534
0.4180862630771924
0.4538164931494177
0.5656278283810533
0.6717853691234535
0.6478146146496864
0.6140121161633305
0.5876774868312555
0.5993739516954173
0.6199560269406882
0.6359180952604596
0.6238018281240572
0.6070475983449523
0.5960989410428195
0.6071094889219208
0.6167532352554487
0.6229334187612487
0.6274271495452545
0.6307588987810085
0.6341844923336212
0.6363945842385549
0.6365438155656089
0.6355692463261468
0.6315032173167771
0.6248497443045901
0.5971454733114234
0.5251274194859122
0.4105703916984592
0.6327705365514386
0.5481640958484704
0.5666421838221426
0.5963496639301077
0.9783094522665849
0.9695959789090122
0.9609805932532806
0.9525606161260126
0.9432671947921188
0.9341752256473754
0.9236064484662655
0.9129961791696229
0.9022551458051401
0.8897820277476916
0.8777139515102335
0.8635106277326872
0.8492235734662047
0.8336024125287212
0.8164631514249334
0.7983015564766892
0.7737784649013646
0.7200487161832433
0.6254174133253632
0.5523221473569312
0.5005955876879148
0.477693599399718
0.4654223434234694
0.4571295153813095
0.451177772863221
0.446674340655416
0.4432373416684381
0.4395387504390207
0.4338615227987595
0.4266693959346946
0.4060987595928983
0.42519222538894
0.4919502758172312
0.4686912277844375
0.439869101247102
0.4181662582949054
0.4537369116549242
0.5667510393996437
0.6729707200453338
0.6490081055418381
0.6157380019049211
0.5889277436356051
0.6006471268447867
0.621346074544872
0.6373154555710385
0.625305106170688
0.6085081884943953
0.597503017514551
0.6085214030932942
0.6180980259431681
0.624425226488982
0.628711493919016
0.63165044651913
0.6344716794186187
0.6362695571296934
0.6365170344437193
0.6357709498979208
0.6327759413514317
0.6266412716056637
0.6012938772750943
0.5337596258148736
0.4404960002286829
0.6143390706482121
0.5585512057227986
0.5539114190050537
0.5789610615359879
0.595304121219575
0.534661385302254
0.6242007434221244
0.9852881228831434
0.9765000857331947
0.9688279745103998
0.9603304161161254
0.9518890790273128
0.942551497534307
0.9334406605096526
0.9228441922536389
0.9122412458695021
0.9014607150599353
0.8889534609034095
0.8768252359744269
0.862585096800214
0.8482854365686501
0.8326275918450636
0.8154886603606357
0.7973373311741375
0.7728570515705311
0.7196212755450526
0.6260587751785399
0.5535955800215718
0.5025486715494402
0.4798582760243003
0.4678542972698591
0.4601657150840602
0.4548707787564343
0.4511428051012234
0.4480894141941391
0.4448477363119505
0.4386529587838168
0.4325463598754881
0.4151366522354393
0.4163925390679278
0.5070723114760306
0.4922909377295731
0.468455166225796
0.4399056590196459
0.4181948899187949
0.453712167076665
0.5678626313338805
0.6744272023196951
0.650562630310518
0.6166054032324803
0.5903294959864173
0.6020080670458687
0.6228433990252668
0.6389154939124344
0.6269229032342151
0.610075536862467
0.5990768595353787
0.6098643443481072
0.6195572976455794
0.6256365430582176
0.6295466273686406
0.6319623843667629
0.6342964955536122
0.6358810328679082
0.636334815223414
0.6358626927778844
0.6337645008684545
0.6284591549266788
0.6046013696854244
0.5361684505447344
0.4195809514002021
0.505238435349026
0.6134769450799061
0.5725482864139495
0.5972819433428291
0.5780493064541162
0.6176993049471824
0.5507501099938479
0.6384375448330543
0.9915455746476742
0.9836378105827566
0.9759614112891627
0.9681319378921265
0.959668829357098
0.9512043958379944
0.9418167923339581
0.9326661509450654
0.9220257172938375
0.9113849542567946
0.9005485963837124
0.8880059513540791
0.8758783327402797
0.8616176436534725
0.8472863011815696
0.8316373638986639
0.8144835808366414
0.7963379741777687
0.7719393431321024
0.7192950883178159
0.6269198752153486
0.5551874229683647
0.5051879732107755
0.4824547489760608
0.4709414581418947
0.4638333766008724
0.459308331701985
0.4560529661065723
0.4534874372294841
0.4490063490879061
0.437532067129462
0.4470949000557512
0.4329516733124759
0.4120727382518436
0.4152026989589212
0.5215489993909789
0.5072703362119498
0.4922351206935605
0.4687710895987398
0.4401375150524012
0.4182634170211579
0.4536163425720361
0.5685703868090169
0.6753286666774053
0.6518578823101954
0.6188752291839112
0.5916987978401033
0.6035000594624589
0.6243860699601134
0.6405705862666681
0.6286175582365137
0.6117614599983162
0.6005757283804406
0.6112028170829634
0.6206993034876044
0.6263731554949589
0.6297979963070696
0.6318402435319163
0.6338118213128657
0.6354114049845723
0.6359645185641879
0.6359554178531146
0.634530527832512
0.6303704578467052
0.6086304798142128
0.5642908724312784
0.4601595763776367
0.5214280558085599
0.6554365008907328
0.5992528799094495
0.5348652498443841
0.6000012368201726
0.608470038058491
0.5898033767109527
0.6371625710705615
0.4727907813690431
0.6155631256413635
0.9982305147966557
0.9901751237448003
0.9829228946638434
0.9752395130428292
0.9675017300655712
0.9589547346649135
0.9504820618033556
0.9410319173398785
0.9318299088600354
0.921162275564942
0.9105121815477369
0.8996549560231759
0.8870472053540891
0.8748697696120483
0.8605825702651336
0.8462358249733264
0.8305745782475913
0.8134765997735596
0.79534796185387
0.7710477641308929
0.7190699688942969
0.6280419249556036
0.5572730022729033
0.5081343750455919
0.4858059192026148
0.4747554541534053
0.4683794543487645
0.4642707911091342
0.461777341710824
0.4574837874573118
0.4555479388534046
0.4434225621230846
0.4528334705504719
0.4379536184424009
0.4200115220281784
0.414998546896812
0.5367273701596623
0.5218206448130264
0.5073375599001594
0.4923218110063631
0.4686247867106159
0.4401239605577389
0.4183007062009394
0.4537197323059061
0.5694300730378767
0.6767246647999441
0.6532415046998711
0.6195016743148015
0.5932338496226464
0.6048447465118992
0.6259899974395322
0.6421544479648786
0.6303102856837721
0.613306219873001
0.6019550263207086
0.6121805275391292
0.6213547744700296
0.6265172964483608
0.6296402302739555
0.6314416926845112
0.6331969247184999
0.6348314188291487
0.635541256323484
0.6359282539011083
0.6352137970859656
0.6314116353278476
0.601697489296211
0.6211712591334017
0.554197603701123
0.5192064243788734
0.4509586911140263
0.6401947011001535
0.6148601575782376
0.5394929453927267
0.5944857039876602
0.609009876607206
0.5735992070867967
0.6432846524647575
0.5330991476298392
0.6145180309544435
1.005453883437731
0.9971451238701975
0.9894623843416498
0.9822459260225641
0.9745575406120728
0.9667100243471037
0.9581658332418151
0.9496568290435399
0.9401774438968145
0.9309421667466025
0.9202333357902904
0.9095204810000236
0.898645072488626
0.8860194457699049
0.8738149500838694
0.8595179115500606
0.8451694853592524
0.8295380052299293
0.8124455004766753
0.7943819340010497
0.7701980300564937
0.7189399028747852
0.6295467228835969
0.5598460881379486
0.5119109204740858
0.4899545417286756
0.4795557952793701
0.4735336001117453
0.4705139589153552
0.4663687141740731
0.4642622790108181
0.4594772374789874
0.4425869025565438
0.4516926108602238
0.4588231241786395
0.4399314140098347
0.4157998116356857
0.4372135738255029
0.4142917826261025
0.5521917896965021
0.5368811390436845
0.5218191242193188
0.5073878111969502
0.492338737472601
0.4688092838879313
0.440178553320419
0.4183650524659878
0.4535371053205438
0.5697498706392915
0.6772495698555099
0.6544367238285118
0.6210531103191747
0.594546282635556
0.6061820634360447
0.6272702421706261
0.6435937418885634
0.6317572764701842
0.6145954476935884
0.6029856114289647
0.612659582772847
0.6214113084310534
0.6262760578768228
0.6291899114604154
0.6309386105710385
0.632509333671738
0.6341244696787817
0.6349998010102752
0.6359369764424456
0.6358281778610195
0.6345729510390262
0.6136381360902567
0.6225462033950829
0.5639574457353378
0.5437473825323481
0.4742219828053892
0.642820664856804
0.6018894564442867
0.4936064243158666
0.6272210801331729
0.5837665141408865
0.5970133565211225
0.635407752268898
0.6320240188102104
0.4892914210016735
1.011308490682786
1.00365285757767
0.996443834728684
0.9888510013811262
0.9815969247088995
0.9738336139789698
0.9659805691136497
0.9573705324487486
0.948796496910562
0.9392898206193553
0.9300076031524663
0.9192888797680258
0.9085343535479786
0.8976062709019257
0.8849521208222921
0.8727254260017834
0.8584181010703664
0.8440846009657927
0.8284612796837197
0.8114524518041574
0.7934296859864575
0.7694031580155587
0.7189806910482992
0.6314580078742984
0.5629855082777396
0.5163795168734522
0.4952431052741048
0.4851523724217842
0.4803586322397217
0.475809279609491
0.4663099093452152
0.4739091278873704
0.4676658158114029
0.4667550490600352
0.4477666699376371
0.4562262513360483
0.4629077993905992
0.4456367018591168
0.4248484119049729
0.4440220723340995
0.4141767060718072
0.5675347396182607
0.5524016612718523
0.5369615092127977
0.5218800516732398
0.5074216876874844
0.4924493088148421
0.4688398258954711
0.4403138087110643
0.4184065002064363
0.4535957608467255
0.5700946721169081
0.678227084362904
0.6554059050974295
0.6221230246175676
0.5957317272593127
0.6071939567514538
0.6282095318855325
0.6446311902815047
0.6327984023541592
0.6155221146347847
0.6035787710353063
0.6125898410821037
0.6211331401008572
0.6257353039272452
0.6286270877792124
0.6303530235057792
0.6317607218152494
0.6332028416417469
0.634718089895859
0.636267962385111
0.6359241851152528
0.6363401303351436
0.6350338322885255
0.615340237273474
0.629348922982191
0.5935155335234038
0.5498702981576609
0.5339362861354359
0.644705344096336
0.6226499027513771
0.4855860811484664
0.6325787584627721
0.574425277340584
0.5935692832691016
0.6424190152926647
0.6309144103299259
0.4735251356948717
1.01718842653775
1.009614616965039
1.002760422888689
0.9958317036616238
0.9882212777924001
0.980825827004425
0.9730397227167373
0.9651324446316751
0.9564771621738813
0.9478674849266646
0.9383215993036721
0.9289989268402169
0.9182399368296055
0.9074522689686378
0.8965121044244749
0.8838432865191711
0.871601812761335
0.8573164404049749
0.8429931317923026
0.8274303425632898
0.8104740307282748
0.7924959835333281
0.7686455277823094
0.7191523154717707
0.6337580095154033
0.5667480335042515
0.5218802512101863
0.5013513277171315
0.4928575517845264
0.4845179680628504
0.4824532329250563
0.4712676183810733
0.4760716972138194
0.4718719805843432
0.4673064617126461
0.4546597721099729
0.4626497076036202
0.4646814034548912
0.4501506323497013
0.4423434937097674
0.4211169339252752
0.4499839242153794
0.4252092344807974
0.5842662688518605
0.5677649577748656
0.5525086986343817