/*--------------------------------*- C++ -*----------------------------------*\
| =========                 |                                                 |
| \\      /  F ield         | OpenFOAM: The Open Source CFD Toolbox           |
|  \\    /   O peration     | Version:  v1912                                 |
|   \\  /    A nd           | Website:  www.openfoam.com                      |
|    \\/     M anipulation  |                                                 |
\*---------------------------------------------------------------------------*/
FoamFile
{
    version     2.0;
    format      ascii;
    class       volScalarField;
    location    "4000";
    object      T;
}
// * * * * * * * * * * * * * * * * * * * * * * * * * * * * * * * * * * * * * //

dimensions      [0 0 0 1 0 0 0];


internalField   nonuniform List<scalar> 
18230
(
282.4657401874887
274.8105598450873
284.2668020645445
284.8244714467278
158.9090719540457
276.351659697681
270.1885844890406
286.9258522122578
285.9144155964534
168.1597283123678
146.5906353953979
275.2425839555362
226.5445526265117
270.8207187126479
288.093600406018
286.9126270760772
189.5561476004716
172.9261365824789
143.7049251841989
273.2800348672098
174.7184107764641
225.5680659924909
271.0946712734113
288.9636086136018
287.9156963684995
191.1907270356976
189.6474618588328
174.6915048028508
143.1885141026589
271.4217208498756
217.4169807384835
175.2711067111051
224.8369939737308
271.1688836004469
289.9131570183861
288.7774185660053
192.4060061580199
191.2060729652111
189.7511098177195
175.8186584594328
143.4600401313534
269.7810080387804
238.7172800432473
217.2210953391726
175.689476349855
224.8165789937219
270.6534636664944
290.8862512919722
289.531457637931
193.9563033054499
192.416836096207
191.3409360375221
189.9319815921957
176.6810153881222
144.1098408152629
268.0438550356503
241.4832487126015
238.4347719386656
217.4718319847675
175.8884204491787
224.0862349022313
270.5993092613272
291.7394668267359
290.1397511126735
195.6901755187464
193.9831725909684
192.5667495451205
191.4365446751486
190.0852684587897
177.3917283919475
145.0607337098444
266.1657788613516
243.3163141412878
241.1751200045224
238.2834582480628
217.8657304838236
176.3508772423961
223.2988331768103
270.5881816738823
292.3418776914073
290.7044356648543
197.6142096093177
195.7076926912847
194.11616049465
192.7001412661299
191.603794308101
190.2848467424683
178.339419628766
146.1895876766247
263.8469851816714
244.081282158327
243.1283519251847
241.0567360782301
238.2299302922335
217.9079222165411
176.818288392112
222.666258548438
270.5975490559582
292.8026202229387
291.2490541240956
199.8640914528577
197.6611020885099
195.8821991528702
194.2461963671226
192.8210804864414
191.7352991130416
190.4361236408316
179.2204541593377
147.5887945798884
261.0782682958992
244.252774484093
243.8549152856904
242.9945661680444
240.9233066123378
238.0623726957521
218.3452784323523
177.4380538138044
221.9231031194711
270.6622235087709
293.1637684894852
291.8420175253503
202.2304323990489
199.9298761739346
197.801277098949
195.9717421636318
194.3783072013956
192.9566479645534
191.8909070232282
190.6488035349959
180.2102854436469
149.1990836019486
258.3975786269036
244.1556288279796
244.0184870325924
243.7050562992906
242.8739641382483
240.8106996354165
237.9308917064377
218.5071336200459
178.1762000879793
220.5174880466527
271.034020379456
293.4482376722924
292.5326189370683
205.9766726468471
202.3462143542451
200.0635383646439
197.9157968349292
196.1196070049966
194.5130478668079
193.1044861578742
192.0420786827907
190.8343862090057
181.1283842315479
150.9710293321965
254.942949227878
243.7161383383475
243.8574970968022
243.8667382183512
243.5707157237012
242.7467381349092
240.68683755653
237.8525586484692
218.8813867748577
178.7550489821728
219.0834197852373
271.4177654360861
293.6709302872169
292.5973753250602
214.5187212035138
206.1756072150727
202.4629937091162
200.173402179462
198.0459305693664
196.2519235728793
194.6715487268283
193.2549203489232
192.210783650869
191.0557263057054
182.1102896578092
152.9881037266578
251.2160523194204
243.4110757385436
243.4197006804525
243.6821490808229
243.7286569573974
243.4362219054453
242.6081984045947
240.537623645538
237.7240042889231
219.3900904162203
179.7026689596788
217.1267299450497
272.0653384530979
293.8389684333994
292.0197579632405
226.0843985053436
214.781523212708
206.2963204569228
202.5587612734759
200.2964371946287
198.1740371530483
196.393999369619
194.8217181868543
193.4287657111257
192.3835591388294
191.2747694742018
183.2043265096241
155.2228151570967
247.3769307797517
242.9561187038226
243.0961046143309
243.2565773900718
243.5416440413559
243.5877802763019
243.2896532998112
242.4585300269981
240.387230993469
237.5458883188785
219.8656808996202
180.6166928297842
214.5625147352267
273.007349513757
293.9842269025184
290.7462980539725
240.2723004636868
226.2673029660607
214.855358332712
206.4070672455233
202.682964881842
200.4166242138369
198.3348751345977
196.5563148546219
195.0018355911144
193.5970641892385
192.5756524601769
191.5363400485984
184.335831339714
157.5695547795426
242.8711062891132
242.2057142891154
242.6216122223382
242.9355515768417
243.114585076469
243.3973301154346
243.4371325148941
243.1350783197361
242.2843121102854
240.2143089213034
237.4212065160406
220.3782884112539
181.6515725861273
211.2573246683303
274.3430373646089
294.110878025008
288.9285639705786
247.0890620493882
240.388807898964
226.4236818470138
215.0092783845545
206.4794407138262
202.8043423679007
200.5740315720609
198.4803020443923
196.7320525696682
195.175159802246
193.7945641771153
192.7976902671492
191.8051207087718
185.5486611303569
160.1095435330634
237.9260518298474
240.924397719172
241.8429472434671
242.4617280655218
242.7837610238935
242.9635541492377
243.2444941980164
243.2763737993195
242.9714637660147
242.1042750616006
240.0251711787811
237.2538396110668
220.998167766321
183.0412828760022
207.2374559741653
274.5868085272211
294.2119732774215
286.670175202314
250.0813622140306
247.3991395132065
240.5574852260864
226.4865665834438
215.1514731252712
206.6348304398986
202.9437030743526
200.7099045484823
198.6628766966413
196.9148079558698
195.3806145360761
194.0203270864197
193.047460789374
192.1383789278229
186.7090771411061
162.6712174593116
232.836837177497
239.274476361361
240.5480470418125
241.6687852336513
242.3163783124334
242.6458742319336
242.8131634683651
243.084782664406
243.1005843391299
242.7916925669659
241.8982544068621
239.814765799986
237.0912172380085
221.6330340209244
184.543034021721
201.9920252439378
273.1563066138021
294.2110403724948
284.2667537129476
252.2061913472141
250.3271086456108
247.509389167324
240.688618988915
226.6556554787139
215.2605756540415
206.77653744034
203.0913838145817
200.8908075771135
198.8390374596931
197.1139851250631
195.611160658219
194.2737879501973
193.3290000236426
192.4553118816641
187.8702669887777
165.2972563400603
227.5606433386595
241.1296717477332
238.8578968641385
240.3452444869733
241.5225815515252
242.164644150982
242.4863004623089
242.6464344339557
242.9053245499149
242.9068397856518
242.5888563244548
241.6690689407229
239.5878613129844
236.8666550618811
222.3029964763491
186.2334058177576
195.5344917976979
270.6011476524179
293.8982811534214
281.6533582533017
254.1739553650663
252.4632821098365
250.4742212616307
247.626951004043
240.7989937908351
226.7242144342053
215.3933948203016
206.9400871390432
203.2665423260165
201.0520927941923
199.044219524648
197.3481660494279
195.8746865448566
194.5599512227814
193.6591584233631
192.8602916033886
188.9817494840486
167.8695263791582
222.4442468962813
243.8058890487018
240.6572718619155
238.6588569960085
240.1792272403694
241.3644694353903
242.0082743451553
242.3199990625649
242.4743639930508
242.710351148956
242.6924694637289
242.3605277951847
241.4196140953451
239.3117982746812
236.6683861201338
222.9707759104959
187.9420181277374
190.4360856730563
267.1854002308987
292.5014034637358
279.1337438486493
255.9274536701262
254.4173166499286
252.6104251341961
250.6011934156011
247.7437095403729
240.9393251795575
226.9769283309351
215.5735886598776
207.1054628696161
203.4348430150979
201.2583384001553
199.2763586091949
197.612079351524
196.1697276722715
194.8812322467444
193.9852580759362
193.2384050475563
190.0296390910201
170.3792352578842
217.8411871591607
245.6756470011384
243.3575416694562
240.4482004152565
238.4821954669426
240.0331615265964
241.2030104035628
241.843912853732
242.1404571213075
242.2786496253656
242.4921775807013
242.4418974128037
242.082505094904
241.1220199572781
239.0128476573551
236.3407103834991
223.6756180147071
189.5882737644938
185.5465370396543
262.3626364072919
290.1951687728172
276.8617507339893
257.4730087495773
256.1600173974383
254.5658942563484
252.7444984138653
250.7401834603249
247.9125563370422
241.0689361045868
227.0616564085098
215.7745408371898
207.3049203948403
203.6474898251628
201.4705167032724
199.5413799570489
197.9031399202894
196.5015678034904
195.2424596322944
194.3570218893847
193.6706932263727
191.0251782324796
172.7760131016589
214.1561145128381
243.7280115513054
245.2300610293138
243.1399671004654
240.2631654115909
238.3126809867014
239.8510510030011
241.0310904014871
241.6571069532098
241.9449446509019
242.0660248540074
242.2505712086566
242.1714463727394
241.8020766752857
240.7684454592799
238.6647839346084
236.0748089399212
224.4167699716589
192.4387142252509
182.0867316736106
257.3124491435755
288.0846888359394
274.9551592474811
258.8306755981374
257.7035201374431
256.3048704995476
254.6854085633731
252.8669290588034
250.8836359549199
248.0646545116352
241.2674925452973
227.290653340927
215.9362918830869
207.5185272331804
203.8572538029965
201.7274932954386
199.8303846800236
198.2350692151856
196.8678721123542
195.6432908757442
194.7527870553906
194.1167348268833
191.9442548499277
175.1269091051427
211.4484021235339
240.4120503894429
243.1337243392516
244.9856160601437
242.9473465544573
240.0759966709961
238.1323148206535
239.6660637842725
240.8381763428019
241.4594022249131
241.7260992447669
241.8186566547913
241.9749871195144
241.8390788484593
241.4154357404499
240.4254637551181
238.2874586684427
235.6909442225293
225.105583721339
196.3771850748327
181.2264604101554
252.8018004902607
286.2766987578547
273.3115947305061
260.2055285988955
259.1428689252127
257.8156183881762
256.4234156218066
254.8173947823619
253.0188598950236
251.0456829805548
248.2380442418162
241.4097929840468
227.4988416715336
216.185739790738
207.7670036322917
204.1235151032673
201.9938489118007
200.1614997147196
198.5962979921468
197.2736194747063
196.0781144246227
195.1682067025037
194.5652424147951
192.8027367227645
177.4270151630453
209.6021058971481
238.5692696981343
239.6242878376427
242.8756608445463
244.7720611666018
242.7664185717569
239.8961566464669
237.9412897374968
239.4742729665862
240.6372143798204
241.2340402958722
241.4799556198624
241.539641066227
241.6645322569213
241.454152183551
241.0168543429742
239.9810027866488
237.8913640451476
235.315538581837
225.5329300596963
200.1291936788018
181.6667420238304
248.9711020514939
284.9026785590722
271.5207909752662
261.2239262767195
260.3992437531253
259.2939967416769
257.9377022756523
256.5530659786282
254.9600204438734
253.1689211526225
251.2226447780731
248.4214841551679
241.6524221989031
227.7202339097188
216.4297867235447
208.0241188888643
204.3876729513458
202.3132548828987
200.5079706285551
199.00156804727
197.7090577962632
196.5538617596121
195.6356952935296
195.0426964528408
193.6177878742043
179.6903965442548
208.7476581374505
241.4544894606051
237.7191725314457
239.2669297367108
242.58018233569
244.5497022514281
242.5520723948147
239.6942593588608
237.7301127800055
239.2499905618597
240.402967192959
240.990822291553
241.1960436914494
241.2194386862766
241.2855623563815
241.026779467309
240.549150158436
239.4876730331281
237.4246507983669
234.9470369388756
225.957154195358
203.2437786639413
182.7919596502637
245.9812518258133
283.7617850615268
269.5406378479018
262.3896580641471
261.5919306869596
260.5515841170694
259.427952599139
258.0721954142618
256.6885266223456
255.1169291673489
253.3411767957144
251.4099257639728
248.6187262105654
241.8491887919652
227.9628193851301
216.7021820497355
208.331705013857
204.7145744229536
202.6367487305455
200.9057688964435
199.4298417583524
198.1763746248534
197.0794451792945
196.1730833682375
195.5796899366368
194.4062700297876
181.89134447442
209.042245620144
245.9685907010725
240.5455123829069
237.3529481876953
238.9620282078319
242.3169150675089
244.3125388117772
242.3228046619735
239.4600655871959
237.5019600354899
239.0073227195185
240.1483002259273
240.6878763028642
240.8754214732441
240.8294323184956
240.835582689267
240.5471320233619
240.0214737093169
238.9667755323204
236.9440108265042
234.6566523881034
226.5187025182934
205.9345990354556
184.3369041884303
243.9073190798558
282.715218768312
267.5376569914213
263.4509324406914
262.7270793704529
261.7788366009952
260.6784386480833
259.5673252825603
258.2242559883097
256.8397290556227
255.283744346575
253.5286340773957
251.6017096859736
248.8395325118803
242.0966204722235
228.2489966750047
216.9921602778257
208.6480034445124
205.0369888191091
203.0109422697396
201.317203581368
199.8892325505137
198.6889548224428
197.6789565080097
196.8050612131801
196.1907389004476
195.1787251461069
184.0569958390238
210.4476549580684
248.5054238748973
245.0905098729825
240.1437382957236
237.0306445106763
238.6652868486716
242.0239943812494
244.0525451919975
242.0839398820763
239.2197102961387
237.2447779785692
238.7333824063137
239.8409180510688
240.3565705174731
240.4931642404672
240.4083111076954
240.357459103812
240.0166505319679
239.4720909756372
238.406333276855
236.5411368505576
234.5079029135142
227.329814016784
208.5653467124683
186.1704934343265
242.6354941622406
281.5061447167108
265.5078217387301
264.4693998915104
263.7828216127986
262.9087554540544
261.9377060714646
260.8307421662726
259.7248258254037
258.3889422016259
257.0207865953997
255.473112454094
253.7286844257106
251.8230003812095
249.065614579213
242.3451881047059
228.5569171691147
217.3389752647348
209.0272608575008
205.41991082275
203.3902601995822
201.7555807084742
200.3858469388854
199.2735513804129
198.3720943188156
197.5368665472805
196.8973006141968
195.9488370228644
186.1808006185761
212.7915709319613
231.555650313293
247.3061381503164
244.6234579811719
239.7729899257608
236.7162475709117
238.3207562734086
241.7318995599746
243.7676840801878
241.8085282680803
238.9431594743662
236.9597434189987
238.4123387648013
239.501518668165
239.975307097582
240.0405190704973
239.8998232365174
239.8080955674739
239.441973191517
238.8508028072956
237.9166373977815
236.2824037391612
234.5838286984186
228.3021521505193
211.1639659912584
188.2691366272087
242.1540524610195
280.2904552504423
263.1889616243912
265.3683595454927
264.8169264878559
263.9705724682591
263.0757084275162
262.1019788893578
261.0031517655697
259.904518373321
258.5770179924367
257.212182576492
255.6819848676964
253.9438345121774
252.0523299707083
249.3176454349529
242.6114126047545
228.8749466560909
217.6864889134039
209.4022759132304
205.8031204913235
203.8018948834497
202.2210839886108
200.9507547436889
199.9459464053135
199.1524893477827
198.3765867536249
197.6941199171857
196.7364265588699
188.1298283590347
215.8858566144532
207.2789774605418
229.4249611333146
246.8517602382634
244.250957375044
239.4537774772462
236.3760879585412
237.986981717461
241.3815079616106
243.4434642776511
241.4974918294254
238.6284211434356
236.6209329387687
238.0526314591033
239.1087483845583
239.5339903571848
239.5333940189593
239.3442211712205
239.2316421060717
238.7998299101316
238.2986567620777
237.5451354784969
236.2484062020164
234.8358725525397
229.3434257516216
213.6664527901956
190.7169690492587
242.6353440375639
278.9563123679832
261.1323302240781
266.2558764100765
265.7283560878272
265.001060579048
264.1303044245537
263.2373438201764
262.2907733368912
261.1834307401014
260.0983884103819
258.7836070044667
257.4249334807086
255.8993185497803
254.1801733226233
252.2962765320144
249.5727871560337
242.9053491284083
229.2319133186396
218.0780845314722
209.8323372164174
206.2262613600922
204.2347975168886
202.7482658318945
201.5991672028513
200.7011277249209
200.0218733559976
199.3189297901478
198.5622673794397
197.5566924580007
189.867074603007
219.1145680387781
200.1617615673331
206.4275337138472
228.8495834250599
246.4409870688853
243.8505251150258
239.0556988312406
236.0210077486026
237.587829184976
241.0173047558381
243.0826426833314
241.1440847220454
238.2499531121163
236.2444973533424
237.6352830576675
238.6754043969093
239.0129518091668
238.9742896403509
238.7630932592041
238.5859858482971
238.2230880061871
237.8872852120327
237.3704202023612
236.3921693644015
235.1934738549395
230.3295675317418
215.944503027239
193.883271917628
242.2010351524667
277.3822431277959
255.1316455068192
267.0786384325557
266.6294371813044
265.9193948585112
265.1748512286555
264.3080257987645
263.4164117439517
262.4793568062632
261.3874748409365
260.311355510565
259.0019817651844
257.6587641842936
256.141225540895
254.4336753640458
252.5584693775466
249.8442911208486
243.2120136962568
229.6149416510599
218.49831516861
210.2597361487458
206.6743151806045
204.7305824687741
203.3556101221528
202.3192795840952
201.5408387885561
200.9640987593702
200.3432300839592
199.496797661929
198.4789474987938
191.5533484473577
217.0557355976137
204.0078318130496
199.8758376886662
206.2478927240597
228.2329086636039
245.9918042094019
243.4482202507297
238.6785972749527
235.6179714924266
237.1613122424039
240.5668982187963
242.6618700859142
240.7350109757699
237.8383123122959
235.8067674113002
237.1711020711729
238.1434408386448
238.439300580517
238.3920519334157
238.1239793171377
238.008364358203
237.7817114728036
237.6611572428384
237.3685048526218
236.6367881298371
235.5645257467322
231.2030793879108
217.9746870592332
197.9726744574245
240.520731826535
276.3188413789176
265.419687394353
235.1524759066419
267.8566999576323
267.4649175950387
266.8308872113823
266.0927594161973
265.3442278639353
264.4871943103076
263.6156124187226
262.6926718028276
261.6073577457454
260.5373433480546
259.2376251685596
257.9056296837217
256.4000644351597
254.6980415020243
252.8355906838857
250.1293450635177
243.5214220631048
230.010230822337
218.9207160409816
210.7525900077438
207.1940071156581
205.3119161338481
204.0272267305866
203.1194075960829
202.4553543957576
201.9629420139153
201.4138871023024
200.5433741315591
199.3964296044971
192.2168823761914
202.6712126985969
209.186654769743
203.8602857585989
199.8647439655869
206.1389121407683
227.7217704640643
245.5941519233145
243.0037722937811
238.2478091080699
235.1778843700923
236.6945113666214
240.0569980851403
242.1761568395637
240.2565838885087
237.3482108704739
235.3219452372258
236.634990325685
237.5610801815079
237.8473814332396
237.7560485052497
237.5575005128856
237.5718974964859
237.5385334149924
237.5923885792194
237.4471112585861
236.9004282429173
235.9276017306813
231.9639788109833
219.7115349111802
202.5567178834766
237.5235962831454
263.2300557766513
265.0439465981062
234.8834377120312
268.5952020897451
268.26758939575
267.6701972044709
267.0074636183385
266.2755819673422
265.5360327173307
264.6802529333081
263.8222654049661
262.9122613848855
261.837184694507
260.7775966182726
259.4908104941466
258.1702591524314
256.6740473705252
254.9817028637798
253.1218025232024
250.4240704529373
243.8505231310084
230.4304235198808
219.3892960656074
211.3202798734205
207.8024734374141
205.9603001659106
204.7860159626646
203.9882585370266
203.4254513891212
203.0150847780118
202.5446543664331
201.578859320542
200.6809202728125
195.9961376296106
200.8476597834742
213.2645920349606
209.054013410685
203.8292640656631
199.8317645352039
206.2234422456047
227.2064247027451
245.1178184748174
242.5260854445035
237.7596557999116
234.6879795858313
236.1846649092723
239.475494112576
241.6335579335598
239.7014905354891
236.8120964379262
234.779463617669
236.0383736076511
236.9724876761352
237.2119332124635
237.19797275897
237.1403016799204
237.329297999165
237.4711536990272
237.5991825558427
237.5464849773565
237.1458671291889
236.2652020139566
232.6044130137726
221.0415314173935
202.2803477976042
234.7397678080376
228.7889361239006
269.1649934728287
270.0126387448473
250.1051757491952
222.894255545896
239.3267526320115
269.3395014209916
269.0387981678005
268.4797923868182
267.8498092902421
267.1889889027868
266.4696201123718
265.7318380250161
264.8942971280938
264.0513494667695
263.1512853774148
262.0880582125242
261.0366379343851
259.7594710119132
258.4492148118292
256.9607840574714
255.2752959068026
253.4216708955056
250.722529564631
244.1825840570158
230.8689238710438
219.9190338881847
211.97765221505
208.4789346401644
206.7050888537761
205.6192483885598
204.9254028577014
204.4703278210137
204.1363608574179
203.6460910815668
202.9851931049775
202.0160051609642
198.582459670611
198.972139511016
215.7633821880372
213.1500757742224
209.0152835091893
203.7829232816235
199.8215208004179
206.0643530026113
226.795131282748
244.6443452765226
242.014750162294
237.2571196698487
234.1635199271688
235.6180454835731
238.8782799586038
241.0162587877552
239.114434382411
236.2350955695341
234.1880618556558
235.4415259373315
236.3486302583732
236.663033644158
236.7946777201993
236.9197311975821
237.2205794032939
237.4864005143945
237.6264515608448
237.6374361258829
237.3531320452521
236.5651683527044
233.0774905017244
221.4298647938811
202.4377138470705
216.6832324737462
236.0294924353071
232.3980151163768
258.3123578842566
271.831205563371
249.5824319632007
224.2554497886279
237.6028277983743
270.130306036599
269.7742307886342
269.2487741084095
268.6581102523634
268.0323742414726
267.3852931285153
266.6705717142643
265.950346294907
265.1241038431838
264.2864742626589
263.3971155691708
262.3488807141955
261.311357917359
260.0449643323394
258.7416052404962
257.2632486524392
255.5798547714493
253.7199189232481
251.0244718423664
244.5143595350049
231.3561281989733
220.5165566298203
212.7357708837143
209.2481959586181
207.5386775209502
206.5433647859645
205.9559924874165
205.5955230074375
205.2495381366683
204.9653998860247
202.9387522624251
204.7950092908361
202.3436633976092
198.1831113489177
198.7405354153382
218.1488933416342
215.6669159108433
213.136557639245
209.029307433314
203.8182116020786
199.7942480286776
206.0861052564429
226.4604580402477
244.1951154578998
241.5123986077806
236.7011178341105
233.6410491515383
235.015486689922
238.2493456066931
240.3818317376463
238.5106249995343
235.625765135532
233.6287947121301
234.8466983019638
235.8202291854338
236.2728071611886
236.5868969280403
236.835955694882
237.1833962084041
237.4924544233533
237.6634412147753
237.6883344369696
237.4812789613991
236.7620948907479
233.5113894602644
226.3895898865507
208.8861812978845
219.61205627333
239.4180595766935
236.1575129154824
223.4509363595126
263.0997588315018
259.5221117278426
270.2861497509481
240.354542645762
209.6728676906716
236.0071237628507
270.8053022411169
270.4929733082247
269.9917100439076
269.4330609042951
268.8503685536248
268.2367632492147
267.5894213196481
266.8943652587211
266.1839627213768
265.3684582062617
264.5417083397355
263.6664619021726
262.6291562340201
261.6000128502657
260.3423893347259
259.0454654469879
257.5698251311456
255.8859488004103
254.0244972360178
251.312706971139
244.8526527752872
231.878046552775
221.1825412922689
213.5561638403712
210.1176200040466
208.4795906674816
207.5838980491907
207.0834669052419
206.7658903712222
206.5877640823559
206.3960642203355
204.3419866101752
206.0663255266513
203.4327993689547
199.9808430030859
199.1917412059363
220.567506725149
218.0486679351307
215.6542115926754
213.1101062413852
208.983688370403
203.7560833968436
199.7787535162697
206.0305019294857
226.1802670962785
243.8093506473533
241.0413647969612
236.1874800577574
233.0766905854809
234.4602828368304
237.59465046073
239.7700276361524
237.920034887774
235.0838010680154
233.1268724853699
234.3630205484199
235.458471612547
236.0770654893956
236.5031600213365
236.8268713137054
237.1637968336741
237.4540631922019
237.633417943576
237.6936589204385
237.4736805177326
236.6590420935435
232.3159290435074
235.0103633468538
224.8008788512016
219.0682870902748
207.4185892502198
241.0599299026546
242.6786040429458
222.8420059398178
257.9495394869481
254.5694792002665
269.0227347483097
238.9136594759097
223.8218863631433
235.3916776705039
271.1134800825411
271.1125772693953
270.6960976043025
270.1675320947969
269.6192749601267
269.0522294644964
268.4432390987913
267.8122145201492
267.1314174170143
266.4314204137822
265.6269957724159
264.8078817098136
263.943797613065
262.9213183049525
261.9018806500499
260.6500956308092
259.3594043240286
257.8817144770638
256.1933840348763
254.3131305414382
251.5960228929976
245.1892558258431
232.4459508823582
221.9141738759438
214.4868742580862
211.1057402289332
209.5541947722611
208.7359073299868
208.3374751294533
208.1197145851079
208.0358547806258
207.2638961981178
204.260671319467
205.9328177338704
207.220486743535
203.8650586027601
199.6250864855996
203.410007055108
198.9996195723786
223.0389607927981
220.4907299790665
218.0342797234472
215.6284690372393
213.0986790522202
208.9757692250209
203.7669231673781
199.7596353386634
205.9988724355644
225.9394525037815
243.4564347504115
240.6303750129138
235.7045403787119
232.6053709780458
233.9030943303937
237.0506304259737
239.2136358086285
237.4430990299979
234.6571799300933
232.7722990972696
234.0512354950816
235.2874804251316
235.9901364046429
236.4894136739064
236.8247588763275
237.1163767952391
237.4186108289528
237.5710799249259
237.5821449612141
237.3366391177414
237.0609178787932
233.7989298653886
235.1617999933182
226.1860149397717
222.9094388824724
210.928696627394
240.2439765323081
233.9531947558215
215.2961906848608
244.726620425452
264.643509157241
262.0269241424066
242.5998157532507
238.3943520258095
214.3775390576514
271.7983883892497
271.5950333682381
271.2824851501421
270.8618189484052
270.346816960646
269.8298159562256
269.2667061989117
268.6729183178634
268.0532048827938
267.3846727171657
266.6940933480184
265.9019307378081
265.0968625561936
264.2393836192365
263.2259644893855
262.2136576419489
260.9657796416056
259.6724052655948
258.1922140594208
256.4866142893518
254.597132472371
251.8657258229318
245.540903167253
233.0615689677192
222.7239088569506
215.5167030791411
212.2524958708945
210.7716269352064
210.0767678624129
209.9202116482979
208.3382932854395
209.7055978851757
208.7886798327467
208.6479320874273
205.2931483329553
206.8407359643348
208.0405105667832
204.8988919276292
200.9981390414088
204.529338284603
198.9285701889287
225.3957767670431
222.9392874571324
220.4756589313537
218.0111331066348
215.6169046690821
213.082086550294
208.9629121140293
203.7278665942138
199.7433802165745
205.9562242702663
225.7707085669586
243.214678430315
240.3060905784052
235.3319928925241
232.1854249124767
233.4742578136194
236.6151786499501
238.8041726115917
237.1239124102956
234.384923765292
232.5934654757882
233.9168692612709
235.2071492907997
235.9708988346661
236.47856030541
236.7906717769117
237.070369123095
237.3040750319259
237.4006615158742
237.3609082402248
237.2672890756199
237.322474974955
237.0439356075107
234.0723347129957
236.2474551483621
230.6697872026905
223.9269891506976
221.3497589352924
239.7173384475507
238.2300568633487
215.7909440753065
241.5291309139386
264.074841410133
259.0383840422995
239.5944695750195
236.3836923831174
210.7447572959863
272.3276390504117
272.2522942360724
271.8388692865183
271.4546117189502
271.0369524366187
270.5476231554691
270.0382938651987
269.4948238941377
268.9112154761891
268.3088431073029
267.6482236424618
266.9748495999831
266.1883234926555
265.3959436658044
264.5482101100766
263.5413663074719
262.5336532798913
261.2823772089823
259.9879457146766
258.4897672402385
256.7749169016884
254.8614923388768
252.1168443958429
245.8920337838785
233.7209662681364
223.6087629288298
216.6819104640687
213.5415254572031
212.2499188099603
211.4070471740801
211.2928822477934
209.4274655582681
210.3342943925121
209.5709592862974
208.8263889686801
206.5559909284413
207.9954576652428
208.3701848824412
205.6588779054162
204.1439989293326
200.2062015486158
205.5596034618945
201.5026430917949
227.9613347578629
225.3339390654962
222.9438445161545
220.4440743865204
217.999059163345
215.5896363087126
213.050122649422
208.9535125882071
203.723551669172
199.7247948630208
205.9100675072677
225.647976573323
243.0409360375264
240.0769565006638
235.0820202636702
231.8370646525478
233.1805680403212
236.3276452476555
238.5733631604232
236.9477562312471
234.2900666166743
232.5409737230699
233.8634461305525
235.1914215192474
235.9462684119135
236.431794542351
236.7543036244882
236.9631979252199
237.0724108228586
237.1424687775138
237.173666718077
237.2599157342766
237.2643117609572
237.1584165825904
235.5767029309418
236.4527406058622
231.6126013834482
228.2059714487066
225.3699286822986
239.6284901832958
232.2462724754616
219.4844266292276
214.8445669268379
242.464735368042
254.89274925231
262.8575763494973
245.1473754743757
238.4969222797302
238.0483237539105
228.6989594847476
272.8831139425927
272.7992192001092
272.4841760116728
272.0453466823809
271.6411863834714
271.2258611260855
270.760774078323
270.2681484266081
269.738122237143
269.1718227295161
268.5800550981448
267.9315636004405
267.271079536422
266.4932278411274
265.710095843493
264.8676633698773
263.8651826604184
262.8535273535321
261.6005967696773
260.2889981033065
258.7808830598311
257.0440650668811
255.1152496242786
252.3587765637668
246.2454433377589
234.4299785569944
224.6157829132861
217.9705279150984
215.0897104500515
213.7155873087478
213.0905459327895
212.471119638042
211.8240180222686
210.663020523395
209.6571067830158
207.3124450082949
208.5412299508237
209.3072602498458
206.9443480313064
205.3446915110819