/*--------------------------------*- C++ -*----------------------------------*\
| =========                 |                                                 |
| \\      /  F ield         | OpenFOAM: The Open Source CFD Toolbox           |
|  \\    /   O peration     | Version:  v1912                                 |
|   \\  /    A nd           | Website:  www.openfoam.com                      |
|    \\/     M anipulation  |                                                 |
\*---------------------------------------------------------------------------*/
FoamFile
{
    version     2.0;
    format      ascii;
    class       volVectorField;
    location    "4000";
    object      U;
}
// * * * * * * * * * * * * * * * * * * * * * * * * * * * * * * * * * * * * * //

dimensions      [0 1 -1 0 0 0 0];


internalField   nonuniform List<vector> 
18230
(
(-86.81543313573621 -36.23128731025519 8.428586938578142e-14)
(-7.800347132256845 -2.813220081440579 4.099616973283142e-14)
(-14.8100519803575 -11.7455844116074 8.968691703964869e-14)
(-83.07466373215493 -34.51605244184463 9.09732211310113e-14)
(455.2644078628498 -139.6393961155332 1.385130000554669e-14)
(24.95149048831257 -2.6481395506861 4.509754496883231e-14)
(6.522250577204969 10.11512192056884 8.207380092208116e-14)
(-17.81127217987487 -13.44221526824128 9.093357682369667e-14)
(-79.37582297556217 -33.16175720981511 9.278947527650008e-14)
(376.2668416338613 -267.8141299319443 1.689541893554378e-14)
(496.930093676683 -164.5012045644282 2.201022562714134e-14)
(52.80390960029602 -6.070655465448784 4.393383454560276e-14)
(-64.20585363923416 -305.5343272727138 8.87688037286405e-14)
(0.5285299234859736 -0.5319792498882784 7.859485937443853e-14)
(-18.46908197434506 -13.01283865034259 9.596788914072794e-14)
(-74.4164055067194 -31.34645289194047 9.487958543671178e-14)
(310.124777665406 -272.0080567460835 1.52673878157483e-14)
(378.6550465459568 -269.2635599607924 2.905742487332556e-14)
(502.4717657918146 -170.2644765266128 2.442798477882222e-14)
(81.8862112668139 -8.941781482759163 4.227988555023402e-14)
(56.7606940464481 -451.3726702063095 9.033932345627105e-14)
(-63.19460431069449 -315.5110284007723 9.471760009324345e-14)
(-2.395207511752388 -7.523159891163234 8.073584526506365e-14)
(-18.82348415076349 -12.32974078674064 9.805750941974754e-14)
(-69.93911089998653 -29.86782716823021 9.858793465090168e-14)
(311.3620378779759 -274.0680933744522 1.456121561008103e-14)
(326.1957690903968 -280.9954204356823 3.094553734877154e-14)
(371.4173698525012 -266.5954794439133 2.914295946627438e-14)
(504.0774051621602 -176.9702654321561 2.740897251990359e-14)
(102.9914435155753 -12.49199162108423 4.151129904289348e-14)
(156.3317042263366 -317.6001120996419 9.201054367202248e-14)
(57.74831839033477 -451.1610380671219 1.00985426013523e-13)
(-58.67383095523984 -319.7369665632456 9.714872138725166e-14)
(-3.777639762764474 -10.99358820838952 8.219664294902983e-14)
(-19.81959443856158 -11.95785996543237 1.012283685145714e-13)
(-65.02050973075839 -28.36112952486402 9.958543028212769e-14)
(307.2193651072645 -274.603284993222 1.307196965332532e-14)
(324.7521933677375 -285.2944465640249 3.138795302094907e-14)
(323.4268676665166 -279.1494255701596 2.736478697883592e-14)
(374.0512350307582 -269.6320684413298 3.609859868234187e-14)
(503.1972419082915 -183.3564047529944 3.023247866754085e-14)
(121.1160938968585 -17.50163217228489 4.113469322796873e-14)
(146.5145115428692 -229.5615483360542 9.234404625283962e-14)
(151.5027359275049 -310.2297731750842 1.033791978026076e-13)
(60.60623704058845 -450.6973846908473 1.031535403888549e-13)
(-53.24551199809974 -321.2340788122125 9.917903779242054e-14)
(-6.497027858720092 -17.54443478391429 8.441506075051936e-14)
(-18.81270838803444 -9.622454032597247 1.042571747105668e-13)
(-60.90396767162937 -27.09443169953498 1.020585700051262e-13)
(301.5389907924941 -274.7904909758092 1.069730567313509e-14)
(320.3374699798981 -285.7896154273147 3.291808944967211e-14)
(316.9511631227408 -279.1116871403266 2.689030258312329e-14)
(329.2549707476234 -284.3207932101172 3.860008873926115e-14)
(370.709808106468 -269.4790931434218 3.777642484167643e-14)
(501.6431668106772 -189.4014349354148 3.366371106142693e-14)
(135.67981861858 -23.82469740143852 4.117382399259007e-14)
(146.2499071376017 -228.4445401425071 9.311410070369897e-14)
(150.2267370589406 -238.4790163126784 1.04580337482407e-13)
(151.0983327253933 -309.5710967403444 1.042730455294058e-13)
(62.06925235541725 -451.4076756651165 1.058490571547282e-13)
(-47.13061739661791 -325.719949242726 1.010996900089964e-13)
(-7.616675417693413 -21.27216235758587 8.666897441739989e-14)
(-18.34084061214993 -7.876451478709046 1.068893724063805e-13)
(-56.29250561026969 -25.85860070007638 1.030507672204904e-13)
(295.0272301904916 -274.961025859229 7.512689949960222e-15)
(314.9181114130266 -286.4790831364289 3.379239971636542e-14)
(313.0274625819547 -279.9322627017262 2.666318273851579e-14)
(324.5022555876955 -285.5163673780615 3.916979594227922e-14)
(326.8797029879162 -282.4991124614558 3.738244449491973e-14)
(371.6990336346083 -271.7284463848363 4.375840099333626e-14)
(499.0266608325309 -196.0355613094491 3.720348260541708e-14)
(148.7302948886672 -31.33506089991808 4.154312375813947e-14)
(142.7525988204944 -220.2262403540584 9.368286131906983e-14)
(145.9873219437869 -228.1821725497788 1.040910405694046e-13)
(151.1921299234793 -240.2375824566544 1.041060277680408e-13)
(151.5920700348697 -309.1387552659404 1.083290476562097e-13)
(64.92383812640568 -450.0597374157916 1.075241022324042e-13)
(-40.40681979728679 -329.9510968058177 1.029871859930852e-13)
(-7.347613963929584 -23.91449381817751 8.870459494985649e-14)
(-17.88286563844592 -5.793698243727206 1.086326019491133e-13)
(-51.30405547671482 -24.67262063813684 1.043768043935999e-13)
(288.4280144318787 -275.415332724932 6.477551812414946e-15)
(308.6783834772854 -287.0080568269295 3.455906233051355e-14)
(307.3892517230163 -280.4986604235507 2.639657071828311e-14)
(320.7623318939783 -286.4848071128686 4.070563153185358e-14)
(320.7312051199814 -282.4128868564666 3.70588742037224e-14)
(330.4381743945098 -285.7417675465526 4.717463094377251e-14)
(368.9857349946772 -272.4134432675763 4.606896866793326e-14)
(495.7207886472855 -202.8447855616876 4.121701778882341e-14)
(162.7362204140436 -40.26723621154977 4.216036837313109e-14)
(140.273825437429 -216.3232345282853 9.18629336247659e-14)
(143.2571274671947 -221.0618780717458 1.04482327536944e-13)
(147.4602676815293 -230.5501757316325 1.03715194732108e-13)
(151.7852164149455 -241.1180989344873 1.092173067487823e-13)
(152.1848605234661 -309.4359795200476 1.089529876690792e-13)
(67.44439682338827 -449.3767080526393 1.105835100265103e-13)
(-32.52475585812608 -333.6795723016596 1.048451648352826e-13)
(-7.029613630118598 -27.27182198203153 9.081135654532357e-14)
(-17.84254793973199 -4.19586674157717 1.101306386185879e-13)
(-44.992894819782 -23.20685805478293 1.046604465227713e-13)
(280.6002822188092 -275.6642570881965 2.044162017366411e-15)
(302.2928133973074 -287.7212140643501 3.663579011907004e-14)
(301.2184352567624 -281.0609407936168 2.553442763365652e-14)
(314.8321062030798 -286.8782337592408 4.097336173196247e-14)
(316.6474361919425 -283.2907492383076 3.670928017497007e-14)
(325.5028983772281 -286.6794883239244 4.759268291181394e-14)
(328.9010979546801 -284.6528606305764 4.641490215577986e-14)
(368.5587729146584 -274.4342879718902 5.145297697512627e-14)
(491.7397942984405 -209.3155026773353 4.512212638145571e-14)
(177.7136028111327 -50.38512748797092 4.292391794532598e-14)
(139.2562277342629 -214.9249501247202 9.073040362170926e-14)
(141.7143271785775 -218.5573681414087 1.042269752946532e-13)
(144.5316727501651 -223.0748157731109 1.031254473988594e-13)
(147.8164090050639 -231.1395433774896 1.090257169057403e-13)
(152.7150970958643 -242.7625545125559 1.095962833726871e-13)
(152.6870204722876 -309.1256781925027 1.139132532260572e-13)
(71.08216272997176 -447.4445690727237 1.126831825815505e-13)
(-23.64360470413276 -337.5505420346378 1.067448152261556e-13)
(-6.934282507748834 -31.97255150343529 9.297878322351197e-14)
(-17.18787346442761 -1.73466690222162 1.11536933396487e-13)
(-35.18304654486537 -20.83720068695357 1.028144987455501e-13)
(272.5318163553071 -275.9136149888294 -3.971653054910745e-15)
(294.3031242532672 -288.1137432545579 3.871539685106892e-14)
(295.1272603439148 -282.1882239285146 2.466920157361962e-14)
(308.6562336985855 -287.5639129849453 4.201081301688262e-14)
(311.1071005357126 -283.8683551948785 3.647649054935206e-14)
(321.3989701000263 -287.5013923389067 4.848575063063944e-14)
(323.4623782261702 -284.950581996711 4.65350832097067e-14)
(330.9254870089476 -286.648717181459 5.42321741728275e-14)
(366.0845118880363 -275.7908927594987 5.444537399265368e-14)
(486.9850974235333 -216.2703116891641 4.924406433873827e-14)
(190.4745518757607 -61.72710412746336 4.403280073195364e-14)
(138.9001655682925 -215.146560443682 9.187594411552956e-14)
(141.381999784586 -218.1997406002144 1.045291786249629e-13)
(142.7571066023977 -220.1818077850126 1.026830763923083e-13)
(145.2410192086168 -224.2176896439013 1.092116562720125e-13)
(148.8214173539022 -232.8021063071351 1.092428971718383e-13)
(153.3476088825037 -243.8561290135482 1.150330351691616e-13)
(153.4491169066206 -309.1121499857836 1.149480568452914e-13)
(74.44156272708638 -445.9455108131362 1.158119526099002e-13)
(-13.65210995496456 -343.288986004476 1.08919374483493e-13)
(-6.35455331896897 -37.36485934375375 9.514956528316147e-14)
(-16.0894082000329 0.9386019425074621 1.125902903369141e-13)
(-22.1100963778646 -17.445746236273 9.794163364996504e-14)
(261.6213719462756 -277.3826344143814 -1.566445752633755e-14)
(286.0767130403741 -288.4661656752761 4.185381900403896e-14)
(287.5177733418529 -282.8401534437855 2.384242885784217e-14)
(302.2511260291776 -288.3977962168997 4.43806618394792e-14)
(305.2076869716009 -284.6612976271727 3.625179812176915e-14)
(315.7814596631378 -288.1452374425274 4.91168255951821e-14)
(319.2455082480568 -285.7671438865868 4.641289526568229e-14)
(326.1454943928464 -287.492784643867 5.431805576358543e-14)
(330.160412882346 -286.2815309960563 5.546494687181198e-14)
(364.9000460263011 -277.8640643340387 5.875501940870969e-14)
(481.7261238926517 -223.532483446254 5.332881387621127e-14)
(205.0068817016242 -74.94796191256324 4.557918348492515e-14)
(139.2941204351531 -216.5224366386514 9.160802340178026e-14)
(141.3765959117006 -218.997882232662 1.046562358795158e-13)
(142.2126428732282 -219.4883976691513 1.022809442705227e-13)
(143.754828372695 -221.7403318608536 1.090552904308003e-13)
(146.1496272731482 -225.6586944698537 1.087915563514498e-13)
(149.5448060638641 -233.9690646424462 1.15066882218613e-13)
(154.1671207429956 -245.2211521689336 1.154756020307995e-13)
(153.9964065641467 -309.1254351619453 1.200150001658123e-13)
(78.24873838107059 -445.05829124449 1.188755954782466e-13)
(-2.926531235333641 -348.2395627652123 1.112476062370404e-13)
(-4.77611020241162 -43.1031874264033 9.740833309547848e-14)
(-14.16203354473144 3.963494679876257 1.132772895903138e-13)
(-9.799171543103794 -15.03037702938193 9.174681531511198e-14)
(234.785460451294 -278.5728069741579 -2.071605355853042e-14)
(273.4729788306611 -288.7367681392501 4.600743974296458e-14)
(279.8240713357891 -283.5867091582526 2.289270190888842e-14)
(294.3266805652691 -288.8714705064897 4.649772276990331e-14)
(298.5003057075951 -285.2932958391573 3.576436465516106e-14)
(309.636418034501 -288.8144416658537 4.964089022959559e-14)
(313.5999278323042 -286.3240531543213 4.629813220384362e-14)
(321.9917081959039 -288.3904342480036 5.493274552443507e-14)
(325.201312466376 -286.7388014799641 5.584647510214757e-14)
(331.4348824725531 -287.7402779495964 6.100282140856721e-14)
(362.2399276517633 -279.4220468188275 6.196327996818552e-14)
(475.7462241182444 -230.6168008230366 5.743082970107347e-14)
(218.9571903926947 -89.14035435990102 4.753323780491804e-14)
(139.7595449173815 -217.7004278484415 8.785810773066445e-14)
(142.0346324863826 -220.8591743603241 1.055055161187872e-13)
(142.0642201747926 -219.9123533550829 1.021452737331652e-13)
(143.451122079755 -221.4070463820617 1.094597840696874e-13)
(144.5530699069473 -222.9854835502246 1.085060687773899e-13)
(147.1290959010555 -227.2231501840208 1.150113645270415e-13)
(150.4151835068261 -235.4088378777476 1.149891150222226e-13)
(155.1311106409416 -246.784744121989 1.216918470852538e-13)
(154.7833254035419 -308.5174345258665 1.222582205205781e-13)
(82.79670504008992 -443.4680222631201 1.226940521757825e-13)
(9.204543641186907 -354.2875782907327 1.138193998589908e-13)
(-2.21513909440069 -49.1783051873293 9.985957033432928e-14)
(-12.59013335308446 6.096125721647816 1.137187952141602e-13)
(0.3268371002725532 -13.76453047576142 8.540866103925048e-14)
(200.1451070129882 -269.3502635788759 -2.063639819496796e-14)
(242.0520984927811 -284.3701172429349 5.6355702942059e-14)
(267.5830337877462 -283.9263357994833 2.056784383582593e-14)
(286.0703356482987 -289.3020845374625 4.910985509178024e-14)
(290.7575576503825 -285.8248115649511 3.561379733362819e-14)
(302.9095571790613 -289.3976042769692 5.059916820156182e-14)
(307.6051600128695 -287.0917908182266 4.639098131977683e-14)
(316.3703656467157 -289.0386509227773 5.547875967780912e-14)
(320.9580794424743 -287.572694099147 5.602047278297072e-14)
(326.9130068305282 -288.5191373699848 6.080298109070452e-14)
(331.0317817539816 -287.7420728216812 6.344083185001883e-14)
(359.9456035708974 -281.4647395256632 6.602148650675989e-14)
(468.9401847370136 -237.7631496108247 6.17257298914886e-14)
(231.2551672611196 -104.9873156788087 4.979061874092559e-14)
(140.2848076808254 -219.5332559696093 8.832559097750552e-14)
(142.512890826638 -222.0326691148011 1.073131590419726e-13)
(142.6153768014989 -221.6257300734034 1.016330752359182e-13)
(143.4390083951703 -222.1153972186815 1.094022728096055e-13)
(144.1315048497308 -222.4623279400492 1.079909810192393e-13)
(145.7260016057213 -224.8147240712302 1.149450641699598e-13)
(147.9288144915574 -228.4966022285953 1.147636141345974e-13)
(151.5264411630056 -237.2357847729115 1.217956160102215e-13)
(155.8451517666495 -248.0874357834458 1.221918498232113e-13)
(155.7618257993249 -308.3209794185486 1.278487376718867e-13)
(87.39596883001005 -442.0187954850558 1.257976863327254e-13)
(22.33582974096149 -361.4952749104314 1.167086965114264e-13)
(1.532006367262518 -56.57860033011475 1.023923029836742e-13)
(-12.08002374980813 6.624117461753994 1.143824541258905e-13)
(10.71669850615778 -13.75058661478275 7.935367829613546e-14)
(160.0342072471794 -244.9771818548197 2.812899878842237e-14)
(205.8835591515122 -273.8996469257537 6.307732675978377e-14)
(238.980058347458 -281.0894892765439 2.031030405334607e-14)
(273.6393437095564 -289.6443698299095 5.232319477649523e-14)
(282.6563435274313 -286.284390431393 3.61624848459345e-14)
(295.0688248867775 -289.9138940753011 5.14877421627205e-14)
(300.707307877619 -287.5391509874765 4.607830640556302e-14)
(310.3196018544636 -289.7956461231292 5.581673375567101e-14)
(315.3063003751667 -288.1683946103303 5.619483545554706e-14)
(322.642023231155 -289.3834350775953 6.107604002350981e-14)
(326.4019694064562 -288.1783550282203 6.364406652247623e-14)
(331.9498597841202 -289.0196047933304 6.831161834313098e-14)
(357.0704201215045 -282.9667071355829 7.011967293570328e-14)
(461.6631539637277 -244.7850572839923 6.620488289707261e-14)
(244.860123403701 -123.1810175618013 5.204636165225273e-14)
(140.9633256985194 -222.0681131702293 8.793065476076156e-14)
(143.3223362754743 -224.2852724912003 1.08185208835727e-13)
(142.9540912861072 -222.5809165927735 9.887179310270311e-14)
(144.1201145581649 -224.0225561681386 1.097969688687972e-13)
(144.0094671115172 -222.9714448310188 1.078004904394571e-13)
(145.4685536506664 -224.5316874515095 1.150988643429148e-13)
(146.4522494181945 -225.953029093532 1.14533366420997e-13)
(149.2646140008912 -230.6325985490251 1.216163595726438e-13)
(152.2776969395106 -238.4799875254984 1.217701043575455e-13)
(157.2238028339284 -250.297217874046 1.300162186145589e-13)
(156.4033334994022 -307.374277095724 1.298971683548714e-13)
(92.85694498748975 -440.0264348549006 1.310324521258814e-13)
(37.26104156694388 -370.3747862853469 1.202343423027993e-13)
(6.479206294535444 -66.34095711044692 1.050847183707384e-13)
(-13.37549212939759 5.002923495492912 1.152986091717671e-13)
(23.95260242699279 -14.79000963141058 7.388509438649899e-14)
(142.8890033009775 -223.8143756998985 2.351009835830576e-14)
(162.594158685533 -246.8658983326477 5.079893267217668e-14)
(204.0435510682815 -272.0470288907476 1.894286138082862e-14)
(242.5937169318891 -285.2058514585776 5.338317922275309e-14)
(270.2601744199847 -286.6589663658472 3.644212958248995e-14)
(286.8088355689678 -290.3363687280595 5.113451635564414e-14)
(292.9467624085169 -288.106664987539 4.615295947534255e-14)
(303.5059907509741 -290.3541246407034 5.612271130365661e-14)
(309.2395794244744 -288.8884616121941 5.64552687446773e-14)
(317.0220888970372 -290.0392543926138 6.117843899889127e-14)
(322.146733753311 -289.0633720794779 6.409397827392738e-14)
(327.7272655608122 -289.730020080649 6.830003636592177e-14)
(331.8122942980731 -289.3986161766791 7.232652973563163e-14)
(354.5159559258737 -284.8562460058345 7.433455427894918e-14)
(453.7369791428973 -251.4778059824292 7.103731222841677e-14)
(258.5266336373539 -142.3935612350808 5.522076845800842e-14)
(141.8669748970143 -226.0990440736148 8.048815395127008e-14)
(144.2954008739474 -227.376126978253 1.072755081083811e-13)
(143.3796217648679 -224.372508552407 9.803719008861676e-14)
(144.554336357935 -225.1699217315849 1.11614144515109e-13)
(144.5902282940783 -224.7215546053482 1.068016205504076e-13)
(145.4622478697592 -225.2268820102769 1.153603043065604e-13)
(146.090667650839 -225.5001397428423 1.138791397726366e-13)
(147.9387929716316 -228.2733077438753 1.217029736062018e-13)
(149.9657436868765 -231.7709665675231 1.215566705549726e-13)
(153.8628506159902 -241.0741853536695 1.300009073207344e-13)
(157.704347861221 -251.3232185209199 1.303618465303093e-13)
(157.7188337046729 -307.5904960323853 1.38218102648967e-13)
(98.49462724457858 -436.5009859073814 1.349818223140317e-13)
(52.03568764513822 -380.0457762289276 1.242939751843315e-13)
(12.85476798891484 -78.31907100417061 1.083091493953626e-13)
(-15.25579456425182 1.893433561505642 1.16403959965912e-13)
(38.90481371453982 -18.64776166633952 6.91145381188941e-14)
(136.5668133535458 -212.1541865165204 8.139790424989566e-14)
(146.2138153942715 -228.9543172601986 5.786261180260335e-14)
(161.5918257153603 -245.6748760349017 3.976410760799907e-14)
(206.4660039405136 -275.094167839212 5.615408894429009e-14)
(240.0125606174578 -282.3820060314933 3.82637873242217e-14)
(274.3581353269979 -290.6592748366256 5.232008706996762e-14)
(284.7467780452006 -288.5272270860689 4.722002016574046e-14)
(295.7263941399936 -290.8760190777584 5.661238175190752e-14)
(302.4306816420433 -289.4496100295224 5.67258451361638e-14)
(310.9912093640093 -290.8292061850598 6.127825719157111e-14)
(316.4652834413658 -289.661482764915 6.444560850217075e-14)
(323.3990795833678 -290.6436061299359 6.846685882296488e-14)
(327.5047296469411 -289.7051095183916 7.249139607106412e-14)
(332.47216511983 -290.5377245976537 7.67076797327494e-14)
(351.7630071328149 -286.4003915124862 7.910427998782307e-14)
(445.6067093393696 -257.8806031012431 7.60460889388036e-14)
(271.3477597767625 -161.8640346329894 5.901368158979907e-14)
(143.8274070922878 -233.1259399191396 7.50421520275222e-14)
(145.6255523533917 -232.3828219863553 1.048164048450341e-13)
(144.1188183355241 -227.0927474493117 9.695882329579541e-14)
(145.2501216342622 -227.2943675935317 1.115538644968727e-13)
(144.8646507355031 -225.5224530651513 1.04653920997901e-13)
(146.134753755536 -227.1467125954013 1.160319621014792e-13)
(145.9886023497619 -226.0335251128286 1.132837480021203e-13)
(147.704508375472 -227.99898033618 1.219840435843862e-13)
(148.5814683502736 -229.2815183942458 1.209734100356931e-13)
(151.7831654142951 -234.6498888750081 1.298252478095904e-13)
(154.4520549815622 -242.0789157609832 1.300082444084241e-13)
(159.728742630636 -254.5566021222986 1.40541185921467e-13)
(158.5676743656498 -306.2035340955732 1.405455215311875e-13)
(104.516848540622 -433.2149523764301 1.416450556802333e-13)
(66.74397075497406 -391.7672568596765 1.291685883020824e-13)
(20.69519480712809 -95.15934488317625 1.123507382311993e-13)
(-16.63715969393888 -2.320454555337776 1.180228529437728e-13)
(53.05450689680256 -26.4795209030865 6.604021225676928e-14)
(132.8444862189241 -205.2919814370351 7.407059776914157e-14)
(140.9619949066511 -219.4844147512785 3.234586685568592e-14)
(144.4339899478706 -226.1503245370829 3.246323745148217e-14)
(163.4604425114956 -248.4908904951181 5.217672456415111e-14)
(205.0984289931965 -273.4073745443668 4.581463889152392e-14)
(243.2568784929672 -286.3401195768901 5.234629376321905e-14)
(271.9550385326814 -288.5835775354804 4.739886077920232e-14)
(287.4828027402015 -291.2882624511626 5.551375743182194e-14)
(294.6085488082633 -289.9458136369537 5.701731141501265e-14)
(304.2120835896665 -291.4354737051193 6.132918589622571e-14)
(310.4064167166737 -290.4027635874384 6.497823802120855e-14)
(317.7563170990232 -291.2958508880424 6.868962704948309e-14)
(323.2165539294994 -290.6614084992096 7.304636153272584e-14)
(328.5741377243037 -291.1610110568266 7.680326885857401e-14)
(332.4296377623908 -291.1979983824864 8.17439299625066e-14)
(349.3954343593736 -288.143543089053 8.353572996933503e-14)
(437.1007135697657 -264.0113838454125 8.14292492174563e-14)
(284.0305847180464 -181.2496257037818 6.389049015723126e-14)
(142.5346932858473 -226.8610449123648 9.394919821890256e-14)
(147.2838197996736 -238.7327953400867 1.064305969452439e-13)
(145.1962310033034 -231.6607698598044 9.495531444107657e-14)
(146.1636947631565 -230.3155090107413 1.117501466831448e-13)
(145.2848739251596 -227.3111024936698 1.038518105510701e-13)
(146.5845011930522 -228.2772189355468 1.170907318800177e-13)
(146.5670970939319 -227.7612917694365 1.119975665618174e-13)
(147.7248534655576 -228.7171317938448 1.223311253226175e-13)
(148.2380899667716 -228.8441006901198 1.202820941785189e-13)
(150.5690895604078 -232.3843382418812 1.301537020160695e-13)
(152.3267395117868 -235.5460463274134 1.294382394343239e-13)
(156.736927874488 -245.7812780126922 1.405914649495256e-13)
(160.0290787510071 -255.2852548041078 1.410028816277476e-13)
(160.5345859913418 -307.2847773162025 1.519586843323835e-13)
(110.6313871942117 -428.8970072020505 1.472291308820726e-13)
(79.34621561867053 -406.4273972747907 1.35141398307599e-13)
(29.57301366733008 -116.854871414975 1.171537540674945e-13)
(-15.97019821856436 -5.810883258126589 1.200428159028312e-13)
(67.70852047234816 -37.2936560835676 6.568164367936646e-14)
(129.843726991539 -199.236958402049 5.797223968857957e-14)
(137.4548433207833 -212.4125168373654 2.952341754457655e-14)
(138.378836487676 -215.3835111522877 6.621846720375184e-14)
(147.3242666062425 -230.6683082415692 6.202337483341873e-14)
(162.3856278909813 -246.8694836052275 4.662878093975985e-14)
(207.4177100000418 -276.3997275948591 5.286516382443185e-14)
(241.651715549128 -284.3993204303289 5.117871925153228e-14)
(274.9814992543366 -291.6352904145919 5.454124284465567e-14)
(286.3454681864119 -290.3275586158924 5.826942726738807e-14)
(296.4990928971683 -291.9927116492025 6.11521127540352e-14)
(303.6270813022946 -290.9920589537391 6.558081556073298e-14)
(311.7427464944111 -292.0807437478459 6.890956167599748e-14)
(317.5155887613342 -291.2613886456583 7.342998869752809e-14)
(324.1034564548268 -292.1029252273546 7.700073798333343e-14)
(328.3298307285368 -291.2879522403027 8.192479717203987e-14)
(332.8492223732919 -292.2652664883277 8.583076862240617e-14)
(346.9261524560911 -289.6348374875381 8.886118302712703e-14)
(428.5818514527843 -269.8133448976569 8.684058907918086e-14)
(295.814378223833 -199.7182667161431 6.943247269933593e-14)
(138.929255734947 -215.1982857892799 9.098680773134589e-14)
(145.9225730526964 -232.6839355231423 1.098887750712581e-13)
(146.9580982759272 -238.2058121050152 1.010892388939153e-13)
(147.5231071607152 -235.4390560126652 1.11297310549924e-13)
(146.0278458517978 -230.0971619040961 1.025224069743018e-13)
(147.2693040666603 -230.4616172771221 1.169331025435264e-13)
(146.7941305422293 -228.4720603605907 1.107601826508597e-13)
(148.3826505640747 -230.6506965250061 1.22690017286193e-13)
(148.178966797362 -229.4129285528523 1.197928197527448e-13)
(150.3229489396518 -232.0965449012539 1.30318609950144e-13)
(151.1298758649876 -233.2676219949367 1.28806561422629e-13)
(154.876518198078 -239.5845171293419 1.406833110015369e-13)
(157.1016975649406 -246.4458840370084 1.405787201028861e-13)
(163.0113467885839 -260.1470442358437 1.549045792007171e-13)
(161.7127226622448 -305.5671453368144 1.55647315167166e-13)
(117.3691271528086 -425.0304438321527 1.557742471665031e-13)
(89.5603695528653 -418.7172943037916 1.423343272187276e-13)
(40.46773567012614 -140.6246510914231 1.225805580174917e-13)
(-14.43875536964821 -10.19259956235611 1.228453651420211e-13)
(81.2904650909758 -50.05035078429022 6.618950310377825e-14)
(127.891655028692 -193.6749686391049 6.478720052660195e-14)
(133.88221250826 -205.2667262477116 2.286745967217395e-14)
(135.0597282586281 -208.7016279880297 6.757364171286905e-14)
(142.077158841358 -221.1454625309228 3.734528097165007e-14)
(145.4713624342056 -227.7181007684681 3.929001539033262e-14)
(164.6788542515299 -250.3583981605662 5.029155135052561e-14)
(205.9784479855547 -274.6368287216708 4.784307180452714e-14)
(244.150281610704 -287.4242623000835 5.093381977151248e-14)
(273.4687531503692 -290.415156515283 5.943224492479073e-14)
(288.2790406233624 -292.4138839632707 6.133691251630414e-14)
(295.8811097190416 -291.5017829114419 6.660594088916345e-14)
(305.0147182598159 -292.7346909700461 6.890614520288698e-14)
(311.4647110773546 -292.0054377043035 7.393888516337548e-14)
(318.4697293124281 -292.7840041036109 7.720951165116448e-14)
(324.0746784106684 -292.4109652040347 8.24140495316613e-14)
(329.2060557078618 -292.7422362449423 8.594869318764979e-14)
(332.8007721296673 -293.0399477823484 9.157471114066859e-14)
(344.869209523412 -291.1785893924729 9.311973935267317e-14)
(420.1083161628204 -275.3350180526771 9.202041633825491e-14)
(306.1896851442306 -217.0390134242763 7.513680733126761e-14)
(135.3572105572543 -206.639892304018 7.517670635074119e-14)
(140.912400169138 -219.1368317946823 1.046605178119537e-13)
(145.6440355802474 -232.0734673113575 9.691131127731682e-14)
(149.1067671800764 -241.6913698877616 1.052259518168638e-13)
(147.184061613416 -234.8618322473162 1.014701994014389e-13)
(148.1832523915988 -233.4917801515791 1.175147240647976e-13)
(147.215743836745 -230.2786553733519 1.103413430775854e-13)
(148.8835724872343 -231.8343743569799 1.230918124373318e-13)
(148.6847985340123 -230.9805777151465 1.188351510019686e-13)
(150.432447426064 -232.9143656282202 1.307969526094092e-13)
(150.7448581577653 -232.7414729383131 1.282717745275926e-13)
(153.8725080068284 -237.5285015219761 1.408291067271074e-13)
(155.1282115138899 -240.0262573718498 1.398025470852286e-13)
(160.6124394883102 -252.0802460483324 1.550916346321267e-13)
(163.2239293920442 -260.5462882022481 1.56448743391293e-13)
(164.2610575065098 -307.231601019459 1.696508160637273e-13)
(124.349381976442 -420.8240615773533 1.649840651404477e-13)
(98.72124871995487 -429.8084066977867 1.513304882314679e-13)
(52.84437700584422 -168.4551090008349 1.295839060374718e-13)
(-12.68941422275148 -18.39508451043907 1.243566705319407e-13)
(94.00292945399204 -64.84739668936628 6.797534036592442e-14)
(125.8866938151424 -187.927101732542 4.308420999990989e-14)
(130.851879282576 -198.5443832715384 3.222717630753851e-14)
(132.1242919446864 -202.5992145937205 7.303572893472546e-14)
(138.5597789868893 -214.1161369422111 2.975400381282349e-14)
(139.5930339603939 -217.2757313636178 6.275006534867473e-14)
(148.7236320511463 -232.8067738364886 5.739313427683073e-14)
(163.3237675682343 -248.2611050517746 6.033198600129386e-14)
(208.4027950183745 -278.0091231493964 5.738021287093178e-14)
(242.9158693160038 -286.1085990920329 6.217401018936143e-14)
(275.7477438377764 -292.7854215214555 6.095100816830784e-14)
(287.6161017021162 -291.8889214688128 6.721036049938428e-14)
(297.3836632419088 -293.300213898034 6.902747245433051e-14)
(304.72268686398 -292.6254821561994 7.446922231259658e-14)
(312.4603090660058 -293.5598476884482 7.742306651859634e-14)
(318.3426008156411 -292.9820154586684 8.288154419184967e-14)
(324.5534018309792 -293.6852293957562 8.614964889255692e-14)
(329.2288862753151 -293.1948004407399 9.187616183200325e-14)
(332.9173486057057 -294.0959641992173 9.493383832632151e-14)
(342.7912356254072 -292.5135500117441 9.801945293002558e-14)
(411.2564276940482 -280.3285681071951 9.695628933759997e-14)
(314.3406788516112 -232.084754774715 8.13009245373147e-14)
(135.5776759255625 -211.9008045183078 9.283922853225724e-14)
(137.5320640771441 -210.5668585187597 1.096987339950524e-13)
(141.5994074274516 -220.0931559831151 9.720488305609431e-14)
(147.7765105962617 -235.5629067254082 1.122295911285045e-13)
(148.8601891255562 -241.2927330261975 1.074727719921448e-13)
(149.4926001676025 -238.5114336260733 1.177094563576747e-13)
(147.9891808143603 -233.1759421257946 1.098494025550521e-13)
(149.5662690931731 -234.0272712441447 1.232016444614245e-13)
(148.9110956720519 -231.7157142592271 1.179783400237814e-13)
(151.0752398677056 -234.864543583296 1.31052309546434e-13)
(150.6337367581841 -233.1858791008512 1.278647465718972e-13)
(153.5628807292125 -237.2568789265119 1.410669361360903e-13)
(154.104990753408 -237.9268730700529 1.392621002651672e-13)
(159.0358770282713 -246.2157982250308 1.551184221767978e-13)
(160.7322803555493 -252.3012828135234 1.563057798462321e-13)
(167.2107317516736 -266.7759311572681 1.736782724045676e-13)
(165.6963557435725 -306.0877263122153 1.780517612935059e-13)