/*--------------------------------*- C++ -*----------------------------------*\
| =========                 |                                                 |
| \\      /  F ield         | OpenFOAM: The Open Source CFD Toolbox           |
|  \\    /   O peration     | Version:  v1912                                 |
|   \\  /    A nd           | Website:  www.openfoam.com                      |
|    \\/     M anipulation  |                                                 |
\*---------------------------------------------------------------------------*/
FoamFile
{
    version     2.0;
    format      ascii;
    class       volScalarField;
    location    "5000";
    object      kt;
}
// * * * * * * * * * * * * * * * * * * * * * * * * * * * * * * * * * * * * * //

dimensions      [0 2 -2 0 0 0 0];


internalField   nonuniform List<scalar> 
66675
(
0.0469635
0.0457725
0.0447803
0.0439441
0.0432399
0.04264
0.0421317
0.0416952
0.0413238
0.0410032
0.0407298
0.0404934
0.0402921
0.0401186
0.0399722
0.0398475
0.0397447
0.0396598
0.0395942
0.0395392
0.0394937
0.0394548
0.0394228
0.0393943
0.0393714
0.0393496
0.0393328
0.039315
0.0393027
0.0392872
0.0392783
0.0392645
0.0392576
0.0392361
0.0386017
0.0469635
0.0457725
0.0447803
0.0439441
0.0432399
0.04264
0.0421317
0.0416952
0.0413238
0.0410032
0.0407298
0.0404934
0.0402921
0.0401186
0.0399722
0.0398475
0.0397447
0.0396598
0.0395942
0.0395392
0.0394937
0.0394548
0.0394228
0.0393944
0.0393714
0.0393496
0.0393327
0.0393151
0.0393025
0.0392874
0.0392779
0.0392647
0.0392574
0.0392422
0.0389791
0.0469635
0.0457725
0.0447803
0.0439441
0.0432399
0.04264
0.0421317
0.0416952
0.0413237
0.0410032
0.0407298
0.0404934
0.0402921
0.0401186
0.0399722
0.0398475
0.0397447
0.0396598
0.0395942
0.0395392
0.0394937
0.0394548
0.0394228
0.0393944
0.0393713
0.0393497
0.0393326
0.0393153
0.0393021
0.0392879
0.0392771
0.0392654
0.0392561
0.0392461
0.039163
0.0469635
0.0457725
0.0447803
0.0439441
0.0432399
0.04264
0.0421317
0.0416952
0.0413237
0.0410032
0.0407297
0.0404934
0.0402921
0.0401186
0.0399722
0.0398475
0.0397447
0.0396598
0.0395942
0.0395392
0.0394937
0.0394548
0.0394227
0.0393944
0.0393712
0.0393498
0.0393323
0.0393155
0.0393016
0.0392883
0.0392764
0.0392661
0.0392549
0.0392473
0.0392205
0.0469635
0.0457725
0.0447803
0.0439441
0.04324
0.04264
0.0421317
0.0416952
0.0413237
0.0410032
0.0407297
0.0404933
0.040292
0.0401186
0.0399721
0.0398475
0.0397447
0.0396598
0.0395941
0.0395392
0.0394937
0.0394548
0.0394226
0.0393944
0.0393711
0.0393499
0.0393321
0.0393157
0.0393012
0.0392885
0.039276
0.0392662
0.0392545
0.039247
0.0392353
0.0469635
0.0457725
0.0447803
0.0439441
0.04324
0.04264
0.0421317
0.0416952
0.0413237
0.0410031
0.0407297
0.0404933
0.040292
0.0401185
0.0399721
0.0398474
0.0397446
0.0396597
0.0395941
0.0395392
0.0394936
0.0394548
0.0394225
0.0393944
0.0393709
0.0393499
0.0393318
0.0393158
0.039301
0.0392885
0.0392759
0.0392657
0.0392551
0.0392454
0.0392382
0.0469635
0.0457725
0.0447803
0.0439441
0.04324
0.04264
0.0421317
0.0416952
0.0413237
0.0410031
0.0407297
0.0404932
0.040292
0.0401185
0.0399721
0.0398474
0.0397446
0.0396597
0.039594
0.0395391
0.0394935
0.0394548
0.0394224
0.0393944
0.0393707
0.0393499
0.0393316
0.0393158
0.0393009
0.0392883
0.0392759
0.0392653
0.0392551
0.0392455
0.0392372
0.0469635
0.0457724
0.0447803
0.0439441
0.04324
0.0426401
0.0421317
0.0416952
0.0413237
0.0410031
0.0407296
0.0404932
0.0402919
0.0401184
0.039972
0.0398474
0.0397446
0.0396597
0.039594
0.0395391
0.0394935
0.0394547
0.0394223
0.0393944
0.0393705
0.0393499
0.0393314
0.0393156
0.0393008
0.0392881
0.0392759
0.0392651
0.039255
0.0392458
0.0392372
0.0469635
0.0457724
0.0447803
0.0439441
0.04324
0.0426401
0.0421317
0.0416951
0.0413236
0.041003
0.0407296
0.0404931
0.0402919
0.0401184
0.039972
0.0398473
0.0397445
0.0396596
0.0395939
0.039539
0.0394934
0.0394547
0.0394222
0.0393944
0.0393704
0.0393498
0.0393313
0.0393154
0.0393007
0.0392878
0.0392757
0.039265
0.0392549
0.0392459
0.0392376
0.0469635
0.0457724
0.0447803
0.0439441
0.0432401
0.0426401
0.0421317
0.0416951
0.0413236
0.041003
0.0407295
0.0404931
0.0402918
0.0401183
0.0399719
0.0398472
0.0397445
0.0396595
0.0395938
0.039539
0.0394932
0.0394546
0.039422
0.0393942
0.0393702
0.0393496
0.0393311
0.0393152
0.0393005
0.0392876
0.0392756
0.0392649
0.0392549
0.0392461
0.039238
0.0469635
0.0457724
0.0447803
0.0439441
0.0432401
0.0426401
0.0421317
0.0416951
0.0413236
0.0410029
0.0407294
0.040493
0.0402917
0.0401182
0.0399719
0.0398471
0.0397444
0.0396594
0.0395937
0.0395389
0.0394931
0.0394545
0.0394218
0.0393941
0.03937
0.0393494
0.0393309
0.0393149
0.0393003
0.0392873
0.0392754
0.0392647
0.0392549
0.0392462
0.0392385
0.0469635
0.0457724
0.0447803
0.0439441
0.0432401
0.0426401
0.0421318
0.0416951
0.0413235
0.0410029
0.0407294
0.0404929
0.0402917
0.0401181
0.0399718
0.0398471
0.0397443
0.0396593
0.0395936
0.0395387
0.0394929
0.0394543
0.0394216
0.0393939
0.0393698
0.0393491
0.0393307
0.0393146
0.0393
0.0392871
0.0392752
0.0392646
0.039255
0.0392464
0.0392389
0.0469635
0.0457724
0.0447803
0.0439441
0.0432401
0.0426402
0.0421318
0.0416951
0.0413235
0.0410028
0.0407293
0.0404928
0.0402916
0.040118
0.0399717
0.0398469
0.0397442
0.0396592
0.0395934
0.0395386
0.0394927
0.0394541
0.0394214
0.0393936
0.0393695
0.0393488
0.0393304
0.0393143
0.0392997
0.0392868
0.039275
0.0392645
0.039255
0.0392467
0.0392393
0.0469635
0.0457724
0.0447803
0.0439441
0.0432402
0.0426402
0.0421318
0.0416951
0.0413235
0.0410027
0.0407293
0.0404927
0.0402915
0.0401179
0.0399716
0.0398468
0.0397441
0.039659
0.0395932
0.0395384
0.0394925
0.0394539
0.0394211
0.0393933
0.0393692
0.0393484
0.0393301
0.0393139
0.0392994
0.0392864
0.0392748
0.0392644
0.0392551
0.0392469
0.0392397
0.0469635
0.0457723
0.0447803
0.0439441
0.0432402
0.0426402
0.0421318
0.0416951
0.0413235
0.0410027
0.0407292
0.0404926
0.0402914
0.0401178
0.0399715
0.0398467
0.039744
0.0396589
0.039593
0.0395382
0.0394922
0.0394536
0.0394208
0.0393929
0.0393688
0.039348
0.0393296
0.0393134
0.039299
0.0392861
0.0392745
0.0392642
0.0392551
0.039247
0.03924
0.0469635
0.0457723
0.0447803
0.0439441
0.0432402
0.0426403
0.0421318
0.0416951
0.0413234
0.0410026
0.0407291
0.0404925
0.0402913
0.0401177
0.0399714
0.0398465
0.0397438
0.0396586
0.0395928
0.0395379
0.0394919
0.0394532
0.0394204
0.0393925
0.0393684
0.0393475
0.0393291
0.0393129
0.0392985
0.0392857
0.0392742
0.0392641
0.0392551
0.0392472
0.0392403
0.0469636
0.0457723
0.0447803
0.0439442
0.0432403
0.0426403
0.0421318
0.0416951
0.0413234
0.0410026
0.0407291
0.0404924
0.0402912
0.0401175
0.0399713
0.0398464
0.0397437
0.0396584
0.0395925
0.0395376
0.0394915
0.0394528
0.03942
0.039392
0.0393678
0.0393469
0.0393286
0.0393124
0.039298
0.0392852
0.0392739
0.0392638
0.039255
0.0392473
0.0392405
0.0469636
0.0457723
0.0447803
0.0439442
0.0432403
0.0426403
0.0421319
0.0416951
0.0413234
0.0410025
0.040729
0.0404923
0.0402911
0.0401174
0.0399712
0.0398462
0.0397435
0.0396581
0.0395921
0.0395372
0.0394911
0.0394523
0.0394194
0.0393914
0.0393672
0.0393463
0.0393279
0.0393117
0.0392974
0.0392847
0.0392735
0.0392636
0.0392549
0.0392473
0.0392406
0.0469636
0.0457723
0.0447803
0.0439442
0.0432403
0.0426404
0.0421319
0.0416951
0.0413234
0.0410025
0.0407289
0.0404922
0.0402911
0.0401173
0.0399711
0.039846
0.0397433
0.0396578
0.0395918
0.0395368
0.0394907
0.0394518
0.0394188
0.0393907
0.0393665
0.0393455
0.0393272
0.039311
0.0392967
0.0392841
0.039273
0.0392632
0.0392546
0.0392471
0.0392406
0.0469636
0.0457722
0.0447803
0.0439442
0.0432403
0.0426404
0.0421319
0.0416952
0.0413234
0.0410024
0.0407289
0.0404921
0.040291
0.0401171
0.039971
0.0398458
0.0397431
0.0396575
0.0395913
0.0395363
0.0394901
0.0394512
0.0394182
0.03939
0.0393657
0.0393447
0.0393263
0.0393102
0.039296
0.0392834
0.0392724
0.0392628
0.0392543
0.0392469
0.0392405
0.0469636
0.0457722
0.0447803
0.0439442
0.0432404
0.0426405
0.0421319
0.0416952
0.0413234
0.0410024
0.0407289
0.0404921
0.0402909
0.040117
0.0399708
0.0398456
0.0397429
0.0396571
0.0395909
0.0395358
0.0394895
0.0394505
0.0394174
0.0393892
0.0393648
0.0393438
0.0393254
0.0393093
0.0392951
0.0392827
0.0392717
0.0392622
0.0392538
0.0392465
0.0392402
0.0469636
0.0457722
0.0447803
0.0439442
0.0432404
0.0426405
0.042132
0.0416952
0.0413234
0.0410024
0.0407288
0.040492
0.0402908
0.0401168
0.0399707
0.0398453
0.0397427
0.0396567
0.0395904
0.0395352
0.0394888
0.0394497
0.0394165
0.0393882
0.0393638
0.0393427
0.0393243
0.0393082
0.0392941
0.0392817
0.0392709
0.0392615
0.0392532
0.039246
0.0392397
0.0469636
0.0457722
0.0447803
0.0439442
0.0432404
0.0426405
0.042132
0.0416952
0.0413234
0.0410024
0.0407288
0.0404919
0.0402907
0.0401167
0.0399706
0.0398451
0.0397425
0.0396562
0.0395898
0.0395345
0.0394881
0.0394488
0.0394156
0.0393872
0.0393627
0.0393416
0.0393231
0.0393071
0.039293
0.0392807
0.03927
0.0392606
0.0392524
0.0392453
0.039239
0.0469636
0.0457722
0.0447803
0.0439442
0.0432404
0.0426406
0.042132
0.0416953
0.0413234
0.0410024
0.0407288
0.0404918
0.0402907
0.0401166
0.0399704
0.0398448
0.0397422
0.0396557
0.0395891
0.0395338
0.0394872
0.0394479
0.0394145
0.039386
0.0393614
0.0393402
0.0393218
0.0393057
0.0392917
0.0392795
0.0392688
0.0392595
0.0392514
0.0392443
0.0392381
0.0469636
0.0457722
0.0447802
0.0439442
0.0432404
0.0426406
0.042132
0.0416953
0.0413234
0.0410024
0.0407287
0.0404918
0.0402906
0.0401164
0.0399703
0.0398446
0.0397419
0.0396551
0.0395884
0.0395329
0.0394862
0.0394468
0.0394133
0.0393846
0.03936
0.0393388
0.0393203
0.0393043
0.0392903
0.0392781
0.0392675
0.0392582
0.0392501
0.0392431
0.039237
0.0469636
0.0457722
0.0447802
0.0439442
0.0432404
0.0426407
0.0421321
0.0416954
0.0413234
0.0410024
0.0407287
0.0404917
0.0402905
0.0401163
0.0399702
0.0398443
0.0397416
0.0396545
0.0395877
0.039532
0.0394851
0.0394455
0.0394119
0.0393831
0.0393584
0.0393371
0.0393186
0.0393026
0.0392886
0.0392765
0.0392659
0.0392567
0.0392486
0.0392416
0.0392355
0.0469636
0.0457722
0.0447802
0.0439442
0.0432404
0.0426407
0.0421321
0.0416954
0.0413234
0.0410024
0.0407287
0.0404917
0.0402905
0.0401162
0.03997
0.0398441
0.0397412
0.0396539
0.0395868
0.0395309
0.0394839
0.0394441
0.0394103
0.0393815
0.0393567
0.0393353
0.0393168
0.0393007
0.0392867
0.0392746
0.039264
0.0392548
0.0392468
0.0392398
0.0392338
0.0469636
0.0457722
0.0447802
0.0439442
0.0432403
0.0426407
0.0421321
0.0416955
0.0413234
0.0410024
0.0407287
0.0404917
0.0402904
0.0401161
0.0399698
0.0398438
0.0397408
0.0396532
0.0395858
0.0395297
0.0394825
0.0394426
0.0394086
0.0393796
0.0393547
0.0393332
0.0393146
0.0392986
0.0392846
0.0392724
0.0392619
0.0392527
0.0392447
0.0392377
0.0392316
0.0469636
0.0457722
0.0447801
0.0439443
0.0432403
0.0426408
0.0421321
0.0416955
0.0413234
0.0410025
0.0407286
0.0404917
0.0402903
0.0401161
0.0399696
0.0398436
0.0397403
0.0396526
0.0395847
0.0395284
0.039481
0.0394408
0.0394067
0.0393775
0.0393525
0.0393309
0.0393123
0.0392962
0.0392822
0.03927
0.0392594
0.0392502
0.0392422
0.0392353
0.0392292
0.0469636
0.0457723
0.0447801
0.0439443
0.0432403
0.0426408
0.0421321
0.0416956
0.0413234
0.0410025
0.0407286
0.0404917
0.0402902
0.040116
0.0399694
0.0398434
0.0397397
0.0396519
0.0395833
0.0395268
0.0394792
0.0394389
0.0394046
0.0393752
0.0393501
0.0393284
0.0393097
0.0392935
0.0392794
0.0392673
0.0392567
0.0392474
0.0392394
0.0392324
0.0392263
0.0469636
0.0457723
0.0447801
0.0439443
0.0432402
0.0426409
0.042132
0.0416956
0.0413234
0.0410026
0.0407285
0.0404918
0.0402901
0.040116
0.0399691
0.0398431
0.0397391
0.0396512
0.0395818
0.0395251
0.0394773
0.0394367
0.0394022
0.0393727
0.0393474
0.0393256
0.0393068
0.0392905
0.0392764
0.0392642
0.0392535
0.0392443
0.0392362
0.0392292
0.039223
0.0469636
0.0457723
0.04478
0.0439443
0.0432402
0.0426409
0.042132
0.0416957
0.0413234
0.0410026
0.0407285
0.0404918
0.0402899
0.040116
0.0399688
0.0398429
0.0397383
0.0396505
0.0395801
0.0395231
0.0394751
0.0394343
0.0393996
0.0393699
0.0393444
0.0393225
0.0393036
0.0392872
0.039273
0.0392607
0.03925
0.0392406
0.0392325
0.0392255
0.0392193
0.0469636
0.0457724
0.04478
0.0439444
0.0432402
0.042641
0.042132
0.0416957
0.0413233
0.0410027
0.0407284
0.0404919
0.0402898
0.040116
0.0399684
0.0398427
0.0397375
0.0396497
0.0395783
0.039521
0.0394727
0.0394317
0.0393967
0.0393668
0.0393411
0.039319
0.0393
0.0392835
0.0392692
0.0392568
0.039246
0.0392366
0.0392284
0.0392213
0.039215
0.0469635
0.0457724
0.04478
0.0439444
0.0432401
0.042641
0.0421319
0.0416958
0.0413233
0.0410028
0.0407283
0.0404919
0.0402896
0.0401159
0.0399681
0.0398424
0.0397367
0.0396488
0.0395763
0.0395187
0.0394701
0.0394288
0.0393935
0.0393634
0.0393375
0.0393152
0.039296
0.0392793
0.0392649
0.0392524
0.0392415
0.039232
0.0392237
0.0392165
0.0392103
0.0469635
0.0457724
0.0447799
0.0439445
0.0432401
0.0426411
0.0421319
0.0416959
0.0413232
0.0410028
0.0407283
0.0404919
0.0402895
0.0401158
0.0399677
0.039842
0.0397359
0.0396477
0.0395744
0.0395162
0.0394672
0.0394255
0.03939
0.0393596
0.0393334
0.0393109
0.0392915
0.0392747
0.0392601
0.0392475
0.0392365
0.0392269
0.0392185
0.0392113
0.0392049
0.0469635
0.0457725
0.0447799
0.0439445
0.04324
0.0426411
0.0421318
0.0416959
0.0413232
0.0410029
0.0407282
0.040492
0.0402893
0.0401157
0.0399674
0.0398416
0.039735
0.0396465
0.0395724
0.0395133
0.0394639
0.0394219
0.0393861
0.0393554
0.039329
0.0393062
0.0392866
0.0392696
0.0392549
0.039242
0.0392309
0.0392212
0.0392128
0.0392054
0.039199
0.0469634
0.0457726
0.0447798
0.0439446
0.04324
0.0426412
0.0421318
0.041696
0.0413231
0.0410029
0.0407281
0.040492
0.0402892
0.0401156
0.039967
0.039841
0.0397342
0.0396451
0.0395705
0.0395101
0.0394603
0.039418
0.0393818
0.0393507
0.0393241
0.0393011
0.0392812
0.039264
0.039249
0.0392361
0.0392248
0.039215
0.0392064
0.0391989
0.0391924
0.0469634
0.0457726
0.0447798
0.0439446
0.0432399
0.0426412
0.0421317
0.041696
0.0413231
0.041003
0.0407281
0.0404919
0.0402891
0.0401154
0.0399667
0.0398404
0.0397333
0.0396435
0.0395685
0.0395067
0.0394563
0.0394136
0.039377
0.0393456
0.0393186
0.0392954
0.0392752
0.0392578
0.0392426
0.0392295
0.039218
0.0392081
0.0391994
0.0391918
0.0391852
0.0469633
0.0457727
0.0447797
0.0439447
0.0432399
0.0426413
0.0421317
0.0416961
0.0413231
0.041003
0.040728
0.0404919
0.040289
0.0401151
0.0399663
0.0398397
0.0397323
0.0396419
0.0395663
0.0395033
0.0394519
0.0394087
0.0393717
0.03934
0.0393126
0.039289
0.0392686
0.0392509
0.0392356
0.0392222
0.0392106
0.0392005
0.0391916
0.0391839
0.0391772
0.0469633
0.0457727
0.0447797
0.0439447
0.0432399
0.0426413
0.0421317
0.0416961
0.0413231
0.041003
0.040728
0.0404918
0.0402888
0.0401149
0.0399659
0.039839
0.0397312
0.0396402
0.0395638
0.0395
0.039447
0.0394033
0.0393659
0.0393337
0.039306
0.0392821
0.0392613
0.0392434
0.0392278
0.0392142
0.0392024
0.0391921
0.0391831
0.0391753
0.0391685
0.0469632
0.0457728
0.0447797
0.0439448
0.0432398
0.0426413
0.0421317
0.0416961
0.041323
0.041003
0.040728
0.0404917
0.0402887
0.0401146
0.0399655
0.0398382
0.0397301
0.0396385
0.0395613
0.0394966
0.0394424
0.0393972
0.0393593
0.0393267
0.0392986
0.0392743
0.0392533
0.039235
0.0392192
0.0392053
0.0391933
0.0391829
0.0391737
0.0391658
0.0391588
0.0469632
0.0457728
0.0447796
0.0439448
0.0432398
0.0426414
0.0421317
0.0416961
0.041323
0.041003
0.0407279
0.0404916
0.0402885
0.0401143
0.039965
0.0398374
0.0397288
0.0396367
0.0395587
0.039493
0.0394377
0.0393913
0.039352
0.039319
0.0392905
0.0392658
0.0392443
0.0392258
0.0392096
0.0391955
0.0391833
0.0391726
0.0391633
0.0391552
0.0391481
0.0469631
0.0457729
0.0447796
0.0439449
0.0432398
0.0426414
0.0421317
0.0416961
0.041323
0.0410029
0.0407279
0.0404915
0.0402883
0.0401139
0.0399644
0.0398366
0.0397275
0.0396348
0.0395561
0.0394894
0.039433
0.0393854
0.0393449
0.0393106
0.0392812
0.039256
0.0392342
0.0392154
0.0391989
0.0391846
0.0391721
0.0391612
0.0391517
0.0391434
0.0391362
0.0469631
0.0457729
0.0447796
0.0439449
0.0432398
0.0426414
0.0421317
0.0416961
0.041323
0.0410029
0.0407278
0.0404914
0.0402881
0.0401136
0.0399638
0.0398357
0.0397261
0.0396328
0.0395533
0.0394858
0.0394284
0.0393796
0.039338
0.0393025
0.039272
0.0392458
0.0392232
0.0392037
0.0391867
0.039172
0.0391591
0.039148
0.0391382
0.0391297
0.0391223
0.0469631
0.0457729
0.0447796
0.0439449
0.0432398
0.0426414
0.0421317
0.0416961
0.041323
0.0410029
0.0407278
0.0404913
0.0402879
0.0401132
0.0399632
0.0398347
0.0397247
0.0396308
0.0395506
0.0394822
0.0394239
0.039374
0.0393314
0.0392948
0.0392633
0.0392361
0.0392126
0.0391923
0.0391747
0.0391593
0.039146
0.0391344
0.0391243
0.0391154
0.0391077
0.0469631
0.0457729
0.0447796
0.0439449
0.0432398
0.0426414
0.0421317
0.0416961
0.041323
0.0410029
0.0407277
0.0404911
0.0402877
0.0401128
0.0399626
0.0398337
0.0397233
0.0396287
0.0395479
0.0394787
0.0394194
0.0393686
0.039325
0.0392874
0.039255
0.039227
0.0392027
0.0391817
0.0391634
0.0391475
0.0391337
0.0391216
0.0391111
0.039102
0.039094
0.046963
0.0457729
0.0447796
0.0439449
0.0432398
0.0426414
0.0421317
0.0416961
0.041323
0.0410028
0.0407277
0.040491
0.0402874
0.0401124
0.0399619
0.0398327
0.0397218
0.0396267
0.0395451
0.0394751
0.0394151
0.0393634
0.0393189
0.0392805
0.0392473
0.0392185
0.0391935
0.0391719
0.039153
0.0391366
0.0391223
0.0391099
0.039099
0.0390896
0.0390813
0.046963
0.0457729
0.0447796
0.0439449
0.0432398
0.0426414
0.0421317
0.0416961
0.041323
0.0410028
0.0407276
0.0404909
0.0402872
0.0401119
0.0399612
0.0398316
0.0397203
0.0396246
0.0395424
0.0394717
0.0394108
0.0393584
0.0393131
0.0392739
0.03924
0.0392106
0.039185
0.0391628
0.0391435
0.0391266
0.039112
0.0390992
0.039088
0.0390783
0.0390698
0.046963
0.0457729
0.0447796
0.0439449
0.0432398
0.0426414
0.0421317
0.0416962
0.041323
0.0410028
0.0407275
0.0404907
0.0402869
0.0401114
0.0399605
0.0398305
0.0397187
0.0396225
0.0395397
0.0394684
0.0394068
0.0393536
0.0393077
0.0392678
0.0392333
0.0392033
0.0391772
0.0391545
0.0391347
0.0391175
0.0391025
0.0390894
0.039078
0.0390681
0.0390594
0.046963
0.045773
0.0447796
0.0439449
0.0432398
0.0426415
0.0421317
0.0416962
0.041323
0.0410027
0.0407274
0.0404905
0.0402866
0.040111
0.0399597
0.0398294
0.0397172
0.0396205
0.0395371
0.0394651
0.039403
0.0393492
0.0393026
0.0392621
0.039227
0.0391965
0.03917
0.0391469
0.0391268
0.0391092
0.0390939
0.0390806
0.039069
0.0390588
0.03905
0.046963
0.045773
0.0447796
0.0439449
0.0432398
0.0426415
0.0421317
0.0416962
0.041323
0.0410027
0.0407273
0.0404904
0.0402863
0.0401105
0.0399589
0.0398283
0.0397157
0.0396185
0.0395346
0.0394621
0.0393993
0.0393449
0.0392978
0.0392569
0.0392213
0.0391903
0.0391634
0.03914
0.0391195
0.0391017
0.0390862
0.0390727
0.0390608
0.0390505
0.0390415
0.046963
0.045773
0.0447796
0.0439449
0.0432398
0.0426415
0.0421318
0.0416962
0.041323
0.0410027
0.0407273
0.0404902
0.040286
0.04011
0.0399582
0.0398272
0.0397142
0.0396166
0.0395322
0.0394591
0.0393959
0.039341
0.0392934
0.039252
0.039216
0.0391847
0.0391574
0.0391337
0.039113
0.0390949
0.0390792
0.0390655
0.0390535
0.0390431
0.0390339
0.046963
0.045773
0.0447796
0.0439449
0.0432399
0.0426415
0.0421318
0.0416962
0.041323
0.0410026
0.0407272
0.04049
0.0402856
0.0401094
0.0399574
0.0398261
0.0397128
0.0396147
0.0395299
0.0394564
0.0393927
0.0393374
0.0392893
0.0392476
0.0392112
0.0391796
0.039152
0.039128
0.0391071
0.0390889
0.0390729
0.0390591
0.0390469
0.0390364
0.0390271
0.046963
0.045773
0.0447796
0.043945
0.0432399
0.0426415
0.0421318
0.0416962
0.041323
0.0410026
0.0407271
0.0404898
0.0402853
0.0401089
0.0399566
0.0398251
0.0397114
0.0396129
0.0395277
0.0394538
0.0393897
0.039334
0.0392856
0.0392435
0.0392069
0.039175
0.0391472
0.0391229
0.0391018
0.0390834
0.0390673
0.0390533
0.0390411
0.0390304
0.0390211
0.046963
0.045773
0.0447796
0.043945
0.0432399
0.0426415
0.0421318
0.0416962
0.041323
0.0410026
0.040727
0.0404896
0.040285
0.0401084
0.0399559
0.0398241
0.03971
0.0396113
0.0395257
0.0394514
0.039387
0.0393309
0.0392822
0.0392398
0.0392029
0.0391708
0.0391428
0.0391184
0.0390971
0.0390785
0.0390623
0.0390482
0.0390359
0.0390251
0.0390157
0.046963
0.045773
0.0447796
0.043945
0.0432399
0.0426416
0.0421318
0.0416962
0.041323
0.0410025
0.0407269
0.0404894
0.0402847
0.0401079
0.0399552
0.0398231
0.0397088
0.0396097
0.0395238
0.0394492
0.0393844
0.0393281
0.0392792
0.0392365
0.0391994
0.0391671
0.0391389
0.0391143
0.0390929
0.0390742
0.0390579
0.0390437
0.0390313
0.0390204
0.039011
0.046963
0.045773
0.0447796
0.043945
0.0432399
0.0426416
0.0421319
0.0416963
0.041323
0.0410025
0.0407268
0.0404893
0.0402844
0.0401074
0.0399545
0.0398222
0.0397076
0.0396082
0.039522
0.0394472
0.0393822
0.0393256
0.0392764
0.0392336
0.0391962
0.0391637
0.0391354
0.0391107
0.0390892
0.0390704
0.039054
0.0390397
0.0390272
0.0390163
0.0390068
0.046963
0.045773
0.0447796
0.043945
0.04324
0.0426416
0.0421319
0.0416963
0.041323
0.0410025
0.0407267
0.0404891
0.0402841
0.040107
0.0399539
0.0398213
0.0397065
0.0396069
0.0395205
0.0394454
0.0393801
0.0393233
0.0392739
0.0392309
0.0391934
0.0391608
0.0391323
0.0391075
0.0390859
0.039067
0.0390505
0.0390362
0.0390236
0.0390127
0.0390031
0.046963
0.045773
0.0447796
0.043945
0.04324
0.0426417
0.0421319
0.0416963
0.0413231
0.0410025
0.0407266
0.0404889
0.0402838
0.0401066
0.0399533
0.0398205
0.0397055
0.0396057
0.039519
0.0394437
0.0393783
0.0393213
0.0392717
0.0392286
0.039191
0.0391582
0.0391296
0.0391047
0.039083
0.039064
0.0390475
0.0390331
0.0390205
0.0390095
0.0389999
0.046963
0.045773
0.0447796
0.043945
0.04324
0.0426417
0.042132
0.0416964
0.0413231
0.0410025
0.0407266
0.0404888
0.0402835
0.0401062
0.0399527
0.0398198
0.0397046
0.0396046
0.0395177
0.0394423
0.0393766
0.0393195
0.0392698
0.0392265
0.0391888
0.0391559
0.0391273
0.0391023
0.0390805
0.0390615
0.0390449
0.0390304
0.0390178
0.0390068
0.0389971
0.046963
0.045773
0.0447796
0.0439451
0.04324
0.0426417
0.042132
0.0416964
0.0413231
0.0410025
0.0407265
0.0404887
0.0402833
0.0401058
0.0399522
0.0398191
0.0397037
0.0396036
0.0395166
0.039441
0.0393752
0.039318
0.0392681
0.0392247
0.0391869
0.039154
0.0391252
0.0391002
0.0390783
0.0390593
0.0390426
0.0390281
0.0390154
0.0390044
0.0389947
0.046963
0.045773
0.0447797
0.0439451
0.0432401
0.0426418
0.0421321
0.0416965
0.0413231
0.0410025
0.0407265
0.0404885
0.0402831
0.0401055
0.0399518
0.0398185
0.039703
0.0396027
0.0395156
0.0394398
0.039374
0.0393166
0.0392667
0.0392232
0.0391853
0.0391523
0.0391235
0.0390984
0.0390765
0.0390574
0.0390407
0.0390261
0.0390134
0.0390024
0.0389927
0.046963
0.045773
0.0447797
0.0439451
0.0432401
0.0426418
0.0421321
0.0416965
0.0413232
0.0410025
0.0407265
0.0404884
0.0402829
0.0401052
0.0399514
0.039818
0.0397024
0.039602
0.0395147
0.0394389
0.0393729
0.0393155
0.0392654
0.0392219
0.0391839
0.0391508
0.039122
0.0390968
0.0390749
0.0390557
0.039039
0.0390245
0.0390117
0.0390006
0.038991
0.046963
0.045773
0.0447797
0.0439451
0.0432401
0.0426419
0.0421322
0.0416966
0.0413232
0.0410025
0.0407264
0.0404884
0.0402828
0.040105
0.039951
0.0398176
0.0397019
0.0396013
0.039514
0.0394381
0.039372
0.0393145
0.0392644
0.0392208
0.0391828
0.0391496
0.0391207
0.0390955
0.0390735
0.0390544
0.0390376
0.0390231
0.0390103
0.0389992
0.0389895
0.046963
0.045773
0.0447797
0.0439452
0.0432402
0.0426419
0.0421323
0.0416967
0.0413233
0.0410026
0.0407264
0.0404883
0.0402827
0.0401048
0.0399508
0.0398173
0.0397014
0.0396008
0.0395134
0.0394374
0.0393712
0.0393137
0.0392635
0.0392198
0.0391818
0.0391486
0.0391197
0.0390944
0.0390724
0.0390532
0.0390365
0.0390219
0.0390091
0.038998
0.0389883
0.046963
0.045773
0.0447797
0.0439452
0.0432402
0.042642
0.0421323
0.0416967
0.0413234
0.0410026
0.0407265
0.0404883
0.0402826
0.0401047
0.0399506
0.039817
0.0397011
0.0396004
0.0395129
0.0394368
0.0393706
0.039313
0.0392628
0.0392191
0.039181
0.0391478
0.0391188
0.0390936
0.0390715
0.0390523
0.0390355
0.0390209
0.0390081
0.038997
0.0389873
0.046963
0.045773
0.0447797
0.0439452
0.0432403
0.0426421
0.0421324
0.0416968
0.0413235
0.0410027
0.0407265
0.0404883
0.0402826
0.0401046
0.0399504
0.0398168
0.0397008
0.0396
0.0395125
0.0394364
0.0393701
0.0393125
0.0392622
0.0392185
0.0391803
0.0391471
0.0391181
0.0390928
0.0390708
0.0390516
0.0390348
0.0390201
0.0390074
0.0389962
0.0389865
0.046963
0.045773
0.0447798
0.0439453
0.0432403
0.0426421
0.0421325
0.0416969
0.0413236
0.0410028
0.0407266
0.0404883
0.0402825
0.0401045
0.0399503
0.0398166
0.0397006
0.0395998
0.0395122
0.039436
0.0393697
0.039312
0.0392618
0.039218
0.0391798
0.0391466
0.0391176
0.0390923
0.0390702
0.039051
0.0390342
0.0390195
0.0390067
0.0389956
0.0389858
0.046963
0.045773
0.0447798
0.0439453
0.0432404
0.0426422
0.0421326
0.041697
0.0413237
0.0410029
0.0407267
0.0404884
0.0402826
0.0401045
0.0399502
0.0398165
0.0397004
0.0395996
0.039512
0.0394358
0.0393695
0.0393117
0.0392614
0.0392176
0.0391795
0.0391462
0.0391172
0.0390918
0.0390698
0.0390505
0.0390337
0.039019
0.0390062
0.0389951
0.0389853
0.046963
0.0457731
0.0447798
0.0439453
0.0432405
0.0426423
0.0421327
0.0416971
0.0413238
0.041003
0.0407267
0.0404885
0.0402826
0.0401045
0.0399502
0.0398164
0.0397003
0.0395995
0.0395118
0.0394356
0.0393693
0.0393115
0.0392612
0.0392174
0.0391792
0.0391459
0.0391168
0.0390915
0.0390694
0.0390502
0.0390334
0.0390187
0.0390059
0.0389947
0.038985
0.046963
0.0457731
0.0447798
0.0439454
0.0432405
0.0426424
0.0421328
0.0416972
0.0413239
0.0410031
0.0407269
0.0404886
0.0402827
0.0401045
0.0399502
0.0398164
0.0397003
0.0395994
0.0395118
0.0394355
0.0393691
0.0393114
0.039261
0.0392172
0.039179
0.0391457
0.0391166
0.0390913
0.0390692
0.0390499
0.0390331
0.0390184
0.0390056
0.0389945
0.0389847
0.046963
0.0457731
0.0447798
0.0439454
0.0432406
0.0426424
0.0421329
0.0416974
0.041324
0.0410032
0.040727
0.0404887
0.0402828
0.0401046
0.0399503
0.0398165
0.0397003
0.0395994
0.0395117
0.0394354
0.0393691
0.0393113
0.0392609
0.0392171
0.0391789
0.0391455
0.0391165
0.0390912
0.0390691
0.0390498
0.0390329
0.0390183
0.0390055
0.0389943
0.0389845
0.046963
0.0457731
0.0447799
0.0439455
0.0432406
0.0426425
0.042133
0.0416975
0.0413241
0.0410033
0.0407271
0.0404888
0.0402829
0.0401047
0.0399504
0.0398165
0.0397004
0.0395994
0.0395117
0.0394354
0.039369
0.0393112
0.0392609
0.039217
0.0391788
0.0391455
0.0391164
0.0390911
0.039069
0.0390497
0.0390328
0.0390182
0.0390053
0.0389942
0.0389844
0.046963
0.0457731
0.0447799
0.0439455
0.0432407
0.0426426
0.0421331
0.0416976
0.0413243
0.0410035
0.0407272
0.0404889
0.040283
0.0401048
0.0399505
0.0398166
0.0397004
0.0395995
0.0395118
0.0394355
0.0393691
0.0393112
0.0392609
0.039217
0.0391788
0.0391454
0.0391164
0.039091
0.0390689
0.0390496
0.0390328
0.0390181
0.0390053
0.0389941
0.0389843
0.046963
0.0457731
0.0447799
0.0439455
0.0432408
0.0426427
0.0421332
0.0416977
0.0413244
0.0410036
0.0407274
0.040489
0.0402831
0.0401049
0.0399506
0.0398167
0.0397005
0.0395996
0.0395118
0.0394355
0.0393691
0.0393113
0.0392609
0.039217
0.0391788
0.0391455
0.0391164
0.039091
0.0390689
0.0390496
0.0390328
0.0390181
0.0390053
0.0389941
0.0389843
0.046963
0.0457731
0.0447799
0.0439456
0.0432408
0.0426428
0.0421333
0.0416978
0.0413245
0.0410037
0.0407275
0.0404892
0.0402832
0.0401051
0.0399507
0.0398168
0.0397006
0.0395997
0.0395119
0.0394356
0.0393692
0.0393113
0.039261
0.0392171
0.0391788
0.0391455
0.0391164
0.0390911
0.0390689
0.0390496
0.0390328
0.0390181
0.0390053
0.0389941
0.0389843
0.046963
0.0457731
0.0447799
0.0439456
0.0432409
0.0426428
0.0421334
0.0416979
0.0413246
0.0410039
0.0407276
0.0404893
0.0402834
0.0401052
0.0399508
0.0398169
0.0397007
0.0395997
0.039512
0.0394357
0.0393692
0.0393114
0.039261
0.0392171
0.0391789
0.0391455
0.0391165
0.0390911
0.039069
0.0390497
0.0390328
0.0390181
0.0390053
0.0389941
0.0389844
0.046963
0.0457731
0.04478
0.0439456
0.0432409
0.0426429
0.0421335
0.041698
0.0413247
0.041004
0.0407277
0.0404894
0.0402835
0.0401053
0.0399509
0.039817
0.0397008
0.0395998
0.0395121
0.0394357
0.0393693
0.0393115
0.0392611
0.0392172
0.0391789
0.0391456
0.0391165
0.0390911
0.039069
0.0390497
0.0390329
0.0390182
0.0390053
0.0389942
0.0389844
0.046963
0.0457731
0.04478
0.0439457
0.043241
0.042643
0.0421335
0.0416981
0.0413248
0.0410041
0.0407278
0.0404895
0.0402836
0.0401054
0.039951
0.0398171
0.0397009
0.0395999
0.0395121
0.0394358
0.0393694
0.0393115
0.0392611
0.0392172
0.039179
0.0391456
0.0391165
0.0390912
0.039069
0.0390497
0.0390329
0.0390182
0.0390054
0.0389942
0.0389844
0.046963
0.0457731
0.04478
0.0439457
0.043241
0.042643
0.0421336
0.0416982
0.0413249
0.0410042
0.0407279
0.0404896
0.0402837
0.0401054
0.0399511
0.0398172
0.0397009
0.0396
0.0395122
0.0394358
0.0393694
0.0393115
0.0392612
0.0392173
0.039179
0.0391456
0.0391166
0.0390912
0.0390691
0.0390498
0.0390329
0.0390182
0.0390054
0.0389942
0.0389844
0.046963
0.0457731
0.04478
0.0439457
0.043241
0.0426431
0.0421337
0.0416982
0.041325
0.0410042
0.040728
0.0404897
0.0402837
0.0401055
0.0399511
0.0398172
0.039701
0.0396
0.0395122
0.0394359
0.0393694
0.0393116
0.0392612
0.0392173
0.039179
0.0391457
0.0391166
0.0390912
0.0390691
0.0390498
0.0390329
0.0390182
0.0390054
0.0389942
0.0389844
0.046963
0.0457731
0.04478
0.0439457
0.043241
0.0426431
0.0421337
0.0416983
0.041325
0.0410043
0.040728
0.0404897
0.0402838
0.0401055
0.0399511
0.0398172
0.039701
0.0396
0.0395122
0.0394359
0.0393694
0.0393116
0.0392612
0.0392173
0.039179
0.0391456
0.0391166
0.0390912
0.0390691
0.0390497
0.0390329
0.0390182
0.0390054
0.0389942
0.0389844
0.046963
0.0457731
0.04478
0.0439457
0.0432411
0.0426431
0.0421337
0.0416983
0.0413251
0.0410043
0.0407281
0.0404897
0.0402838
0.0401056
0.0399511
0.0398172
0.039701
0.0396
0.0395122
0.0394359
0.0393694
0.0393115
0.0392612
0.0392172
0.039179
0.0391456
0.0391165
0.0390911
0.039069
0.0390497
0.0390329
0.0390182
0.0390053
0.0389941
0.0389843
0.046963
0.0457731
0.04478
0.0439457
0.0432411
0.0426431
0.0421337
0.0416983
0.0413251
0.0410043
0.0407281
0.0404897
0.0402838
0.0401055
0.0399511
0.0398172
0.039701
0.0396
0.0395122
0.0394358
0.0393694
0.0393115
0.0392611
0.0392172
0.0391789
0.0391456
0.0391165
0.0390911
0.0390689
0.0390496
0.0390328
0.0390181
0.0390053
0.0389941
0.0389843
0.046963
0.0457731
0.04478
0.0439457
0.0432411
0.0426431
0.0421337
0.0416983
0.0413251
0.0410043
0.0407281
0.0404897
0.0402837
0.0401055
0.0399511
0.0398172
0.0397009