/*--------------------------------*- C++ -*----------------------------------*\
| =========                 |                                                 |
| \\      /  F ield         | OpenFOAM: The Open Source CFD Toolbox           |
|  \\    /   O peration     | Version:  v1912                                 |
|   \\  /    A nd           | Website:  www.openfoam.com                      |
|    \\/     M anipulation  |                                                 |
\*---------------------------------------------------------------------------*/
FoamFile
{
    version     2.0;
    format      ascii;
    class       volScalarField;
    location    "5000";
    object      omega;
}
// * * * * * * * * * * * * * * * * * * * * * * * * * * * * * * * * * * * * * //

dimensions      [0 0 -1 0 0 0 0];


internalField   nonuniform List<scalar> 
66675
(
23.492
22.9439
22.4852
22.0994
21.7728
21.4956
21.2589
21.0566
20.883
20.734
20.6059
20.4957
20.4011
20.3198
20.2507
20.1919
20.1431
20.1029
20.0716
20.05
20.0349
20.0254
20.0191
20.016
20.0141
20.0138
20.0141
20.0146
20.0156
20.0164
20.0176
20.0183
20.0193
20.02
20.0204
23.492
22.9439
22.4852
22.0994
21.7728
21.4956
21.2589
21.0566
20.883
20.734
20.6059
20.4957
20.4011
20.3198
20.2507
20.1919
20.1431
20.1029
20.0716
20.05
20.0349
20.0254
20.0191
20.016
20.0141
20.0138
20.0141
20.0146
20.0156
20.0164
20.0175
20.0183
20.0191
20.0199
20.0203
23.492
22.9439
22.4852
22.0994
21.7728
21.4956
21.2589
21.0566
20.883
20.734
20.6059
20.4957
20.4011
20.3198
20.2507
20.1919
20.1431
20.1029
20.0716
20.05
20.0349
20.0254
20.0191
20.0159
20.014
20.0138
20.014
20.0146
20.0155
20.0164
20.0174
20.0183
20.019
20.0198
20.0202
23.492
22.9439
22.4852
22.0994
21.7728
21.4956
21.2589
21.0566
20.883
20.734
20.6059
20.4957
20.4011
20.3198
20.2507
20.1919
20.1431
20.1028
20.0716
20.05
20.0349
20.0254
20.0191
20.0159
20.014
20.0138
20.014
20.0145
20.0154
20.0164
20.0173
20.0182
20.0188
20.0196
20.02
23.492
22.9439
22.4852
22.0994
21.7728
21.4956
21.2589
21.0566
20.883
20.734
20.6059
20.4957
20.4011
20.3198
20.2507
20.1919
20.1431
20.1028
20.0716
20.0499
20.0349
20.0253
20.0191
20.0159
20.0139
20.0137
20.0139
20.0145
20.0153
20.0163
20.0171
20.0181
20.0187
20.0194
20.0198
23.492
22.9439
22.4852
22.0994
21.7728
21.4956
21.2589
21.0566
20.883
20.734
20.6059
20.4957
20.4011
20.3198
20.2507
20.1919
20.1431
20.1028
20.0715
20.0499
20.0348
20.0253
20.019
20.0158
20.0139
20.0136
20.0138
20.0144
20.0152
20.0162
20.017
20.0179
20.0185
20.0191
20.0196
23.492
22.9439
22.4852
22.0994
21.7728
21.4956
21.2589
21.0566
20.883
20.734
20.6059
20.4957
20.4011
20.3198
20.2507
20.1919
20.1431
20.1028
20.0715
20.0499
20.0348
20.0252
20.019
20.0157
20.0138
20.0135
20.0137
20.0143
20.015
20.016
20.0168
20.0177
20.0183
20.0189
20.0194
23.492
22.9439
22.4852
22.0994
21.7728
21.4956
21.2588
21.0566
20.883
20.734
20.6059
20.4957
20.4011
20.3198
20.2507
20.1919
20.1431
20.1028
20.0715
20.0498
20.0348
20.0252
20.0189
20.0156
20.0137
20.0133
20.0136
20.0141
20.0148
20.0158
20.0166
20.0174
20.0181
20.0187
20.0191
23.492
22.9439
22.4852
22.0994
21.7728
21.4956
21.2588
21.0566
20.883
20.734
20.6059
20.4957
20.4011
20.3198
20.2507
20.1919
20.143
20.1028
20.0715
20.0498
20.0347
20.0251
20.0188
20.0154
20.0135
20.0132
20.0134
20.0139
20.0146
20.0155
20.0164
20.0171
20.0178
20.0184
20.0189
23.492
22.9439
22.4852
22.0994
21.7728
21.4956
21.2588
21.0566
20.883
20.734
20.6059
20.4957
20.4011
20.3199
20.2507
20.1919
20.143
20.1028
20.0715
20.0497
20.0346
20.0249
20.0187
20.0153
20.0134
20.0129
20.0131
20.0136
20.0143
20.0152
20.016
20.0168
20.0175
20.018
20.0185
23.492
22.9439
22.4852
22.0994
21.7728
21.4956
21.2588
21.0566
20.883
20.734
20.6059
20.4957
20.4011
20.3199
20.2507
20.1919
20.143
20.1028
20.0714
20.0496
20.0346
20.0248
20.0185
20.0151
20.0132
20.0127
20.0128
20.0133
20.014
20.0148
20.0156
20.0164
20.0171
20.0176
20.0182
23.492
22.9439
22.4852
22.0995
21.7728
21.4956
21.2588
21.0566
20.883
20.734
20.6059
20.4957
20.4011
20.3199
20.2507
20.1919
20.143
20.1027
20.0714
20.0495
20.0344
20.0246
20.0183
20.0148
20.0129
20.0123
20.0125
20.0129
20.0136
20.0144
20.0152
20.0159
20.0166
20.0172
20.0177
23.492
22.9439
22.4852
22.0995
21.7728
21.4956
21.2588
21.0566
20.883
20.734
20.6059
20.4957
20.4011
20.3199
20.2507
20.1919
20.143
20.1027
20.0713
20.0494
20.0343
20.0244
20.0181
20.0145
20.0126
20.012
20.0121
20.0125
20.0131
20.0139
20.0147
20.0154
20.016
20.0166
20.0172
23.492
22.9439
22.4851
22.0995
21.7728
21.4956
21.2588
21.0566
20.883
20.734
20.6059
20.4957
20.4011
20.3199
20.2507
20.1919
20.143
20.1027
20.0713
20.0493
20.0342
20.0242
20.0179
20.0142
20.0123
20.0115
20.0116
20.0119
20.0126
20.0133
20.014
20.0147
20.0154
20.016
20.0165
23.492
22.9439
22.4851
22.0995
21.7728
21.4956
21.2588
21.0566
20.883
20.7341
20.6059
20.4957
20.401
20.3199
20.2506
20.1919
20.1429
20.1027
20.0712
20.0491
20.034
20.0239
20.0176
20.0138
20.0118
20.011
20.0111
20.0113
20.0119
20.0126
20.0133
20.014
20.0146
20.0152
20.0157
23.492
22.9439
22.4851
22.0995
21.7728
21.4956
21.2588
21.0566
20.883
20.7341
20.6059
20.4957
20.401
20.3199
20.2506
20.1919
20.1429
20.1026
20.0711
20.049
20.0338
20.0236
20.0172
20.0133
20.0113
20.0104
20.0104
20.0107
20.0111
20.0118
20.0125
20.0131
20.0137
20.0143
20.0148
23.492
22.9439
22.4851
22.0995
21.7728
21.4956
21.2588
21.0566
20.883
20.7341
20.6059
20.4957
20.401
20.3199
20.2506
20.1919
20.1429
20.1026
20.071
20.0488
20.0335
20.0232
20.0168
20.0128
20.0108
20.0096
20.0096
20.0098
20.0103
20.0109
20.0115
20.0121
20.0127
20.0133
20.0137
23.492
22.9439
22.4851
22.0995
21.7728
21.4956
21.2588
21.0566
20.883
20.7341
20.6059
20.4958
20.401
20.3199
20.2506
20.1919
20.1428
20.1025
20.0709
20.0485
20.0332
20.0228
20.0163
20.0122
20.0101
20.0089
20.0087
20.0089
20.0092
20.0098
20.0104
20.011
20.0115
20.012
20.0125
23.492
22.9439
22.4851
22.0995
21.7728
21.4956
21.2588
21.0566
20.883
20.7341
20.6058
20.4958
20.401
20.3199
20.2506
20.1919
20.1428
20.1025
20.0707
20.0483
20.0328
20.0223
20.0157
20.0115
20.0092
20.008
20.0077
20.0078
20.0081
20.0085
20.0091
20.0096
20.0101
20.0106
20.0111
23.492
22.9439
22.4851
22.0995
21.7728
21.4956
21.2588
21.0566
20.883
20.7341
20.6058
20.4958
20.401
20.3199
20.2505
20.1919
20.1427
20.1024
20.0705
20.048
20.0324
20.0218
20.015
20.0107
20.0083
20.007
20.0065
20.0066
20.0068
20.0071
20.0076
20.0081
20.0086
20.009
20.0094
23.492
22.9439
22.4851
22.0995
21.7728
21.4956
21.2588
21.0566
20.883
20.7341
20.6058
20.4958
20.401
20.3199
20.2505
20.1919
20.1426
20.1023
20.0703
20.0476
20.0319
20.0212
20.0142
20.0098
20.0072
20.0058
20.0051
20.0051
20.0053
20.0055
20.0059
20.0063
20.0068
20.0072
20.0075
23.492
22.9439
22.4851
22.0995
21.7728
21.4956
21.2588
21.0566
20.8829
20.7341
20.6058
20.4958
20.4009
20.3199
20.2505
20.1919
20.1425
20.1022
20.0701
20.0472
20.0313
20.0204
20.0133
20.0087
20.0059
20.0044
20.0036
20.0034
20.0035
20.0037
20.004
20.0044
20.0047
20.005
20.0054
23.4919
22.9439
22.4851
22.0995
21.7728
21.4956
21.2588
21.0567
20.8829
20.7341
20.6058
20.4958
20.4009
20.3199
20.2504
20.1918
20.1424
20.1021
20.0698
20.0468
20.0307
20.0196
20.0123
20.0075
20.0046
20.0029
20.002
20.0015
20.0016
20.0016
20.0018
20.0021
20.0024
20.0026
20.0029
23.4919
22.9439
22.4851
22.0995
21.7728
21.4956
21.2588
21.0567
20.8829
20.7341
20.6058
20.4958
20.4009
20.3199
20.2504
20.1918
20.1423
20.102
20.0695
20.0463
20.0299
20.0187
20.0111
20.0062
20.003
20.0011
20
19.9995
19.9993
19.9993
19.9994
19.9995
19.9997
19.9999
20.0001
23.4919
22.9439
22.4851
22.0995
21.7728
21.4956
21.2588
21.0567
20.8829
20.7341
20.6058
20.4958
20.4009
20.3199
20.2503
20.1918
20.1422
20.1019
20.0691
20.0457
20.0291
20.0176
20.0098
20.0046
20.0013
19.9991
19.9979
19.9971
19.9968
19.9966
19.9966
19.9967
19.9967
19.9968
19.9969
23.4919
22.9439
22.4851
22.0995
21.7728
21.4956
21.2588
21.0567
20.8829
20.7342
20.6057
20.4958
20.4008
20.32
20.2502
20.1918
20.142
20.1018
20.0687
20.045
20.0282
20.0164
20.0083
20.0029
19.9993
19.9969
19.9954
19.9945
19.994
19.9936
19.9935
19.9934
19.9934
19.9934
19.9934
23.4919
22.9439
22.4851
22.0995
21.7728
21.4956
21.2588
21.0567
20.8829
20.7342
20.6057
20.4959
20.4008
20.3199
20.2502
20.1917
20.1418
20.1016
20.0683
20.0443
20.0272
20.0151
20.0067
20.0009
19.997
19.9944
19.9927
19.9916
19.9908
19.9903
19.99
19.9898
19.9896
19.9895
19.9894
23.4919
22.9439
22.4851
22.0995
21.7727
21.4956
21.2588
21.0567
20.8829
20.7342
20.6057
20.4959
20.4008
20.3199
20.2501
20.1917
20.1417
20.1014
20.0678
20.0435
20.026
20.0136
20.0049
19.9988
19.9946
19.9917
19.9897
19.9883
19.9873
19.9866
19.9861
19.9857
19.9854
19.9852
19.985
23.4919
22.9439
22.4851
22.0995
21.7727
21.4956
21.2588
21.0567
20.8829
20.7342
20.6057
20.4958
20.4008
20.3199
20.2501
20.1916
20.1415
20.1011
20.0673
20.0426
20.0248
20.012
20.0028
19.9964
19.9918
19.9886
19.9863
19.9846
19.9834
19.9825
19.9818
19.9813
19.9808
19.9805
19.9802
23.4919
22.9439
22.4851
22.0995
21.7727
21.4956
21.2588
21.0567
20.8829
20.7342
20.6057
20.4958
20.4008
20.3199
20.25
20.1915
20.1413
20.1008
20.0668
20.0417
20.0234
20.0102
20.0006
19.9938
19.9888
19.9852
19.9826
19.9806
19.9791
19.978
19.9771
19.9763
19.9757
19.9752
19.9748
23.4919
22.9439
22.4851
22.0995
21.7728
21.4956
21.2588
21.0567
20.8829
20.7342
20.6057
20.4958
20.4008
20.3198
20.25
20.1913
20.1412
20.1004
20.0663
20.0407
20.0219
20.0082
19.9982
19.9909
19.9855
19.9815
19.9785
19.9762
19.9744
19.973
19.9719
19.9709
19.9701
19.9694
19.9689
23.4919
22.9439
22.4851
22.0995
21.7728
21.4956
21.2588
21.0567
20.8829
20.7341
20.6057
20.4958
20.4008
20.3197
20.2499
20.1912
20.141
20.1
20.0658
20.0396
20.0203
20.006
19.9955
19.9877
19.9818
19.9774
19.974
19.9714
19.9693
19.9675
19.9661
19.965
19.964
19.9631
19.9624
23.492
22.9439
22.4851
22.0995
21.7728
21.4956
21.2588
21.0567
20.8829
20.7341
20.6058
20.4957
20.4008
20.3197
20.2499
20.191
20.1408
20.0995
20.0652
20.0384
20.0185
20.0037
19.9925
19.9842
19.9778
19.9729
19.9691
19.9661
19.9636
19.9616
19.9599
19.9585
19.9573
19.9562
19.9553
23.492
22.9439
22.4851
22.0995
21.7728
21.4956
21.2588
21.0566
20.8829
20.7341
20.6058
20.4957
20.4008
20.3196
20.2499
20.1907
20.1406
20.0989
20.0646
20.0371
20.0165
20.0011
19.9893
19.9804
19.9735
19.968
19.9638
19.9603
19.9574
19.9551
19.9531
19.9514
19.95
19.9487
19.9476
23.492
22.9439
22.4851
22.0994
21.7728
21.4956
21.2588
21.0566
20.883
20.7341
20.6058
20.4957
20.4008
20.3195
20.2498
20.1905
20.1404
20.0984
20.0639
20.0357
20.0144
19.9982
19.9858
19.9762
19.9687
19.9628
19.958
19.954
19.9508
19.9481
19.9458
19.9438
19.9421
19.9406
19.9394
23.492
22.9439
22.4851
22.0994
21.7728
21.4956
21.2588
21.0566
20.883
20.734
20.6058
20.4956
20.4008
20.3194
20.2497
20.1903
20.1401
20.0978
20.0631
20.0343
20.0123
19.9953
19.9822
19.9719
19.9637
19.9571
19.9518
19.9474
19.9437
19.9406
19.9379
19.9356
19.9337
19.932
19.9305
23.492
22.9439
22.4852
22.0994
21.7728
21.4955
21.2588
21.0566
20.883
20.734
20.6058
20.4956
20.4008
20.3193
20.2496
20.1901
20.1398
20.0972
20.0622
20.0331
20.0101
19.9923
19.9783
19.9672
19.9584
19.9512
19.9452
19.9403
19.9361
19.9326
19.9296
19.927
19.9247
19.9228
19.9211
23.492
22.9439
22.4852
22.0994
21.7728
21.4955
21.2589
21.0566
20.883
20.734
20.6058
20.4955
20.4007
20.3192
20.2495
20.1898
20.1393
20.0967
20.0612
20.0318
20.0078
19.9891
19.9743
19.9624
19.9528
19.9449
19.9383
19.9328
19.9282
19.9242
19.9208
19.9179
19.9153
19.9131
19.9112
23.492
22.9438
22.4852
22.0994
21.7728
21.4955
21.2589
21.0566
20.883
20.734
20.6058
20.4955
20.4007
20.3191
20.2493
20.1896
20.1389
20.0961
20.0601
20.0304
20.0057
19.9859
19.9702
19.9574
19.947
19.9384
19.9312
19.9251
19.9199
19.9155
19.9117
19.9084
19.9055
19.903
19.9008
23.492
22.9438
22.4852
22.0994
21.7729
21.4955
21.2589
21.0566
20.883
20.734
20.6058
20.4955
20.4006
20.3191
20.2491
20.1893
20.1385
20.0954
20.0591
20.0289
20.0037
19.9829
19.9661
19.9525
19.9412
19.9318
19.9239
19.9172
19.9114
19.9065
19.9023
19.8986
19.8954
19.8926
19.8902
23.492
22.9438
22.4852
22.0994
21.7729
21.4955
21.2589
21.0565
20.883
20.734
20.6058
20.4955
20.4006
20.319
20.249
20.1891
20.138
20.0947
20.0581
20.0273
20.0016
19.9801
19.9623
19.9476
19.9354
19.9252
19.9166
19.9092
19.9029
19.8975
19.8928
19.8887
19.8852
19.8821
19.8794
23.492
22.9438
22.4852
22.0994
21.7729
21.4955
21.2589
21.0565
20.883
20.734
20.6058
20.4954
20.4005
20.3189
20.2488
20.1887
20.1375
20.0939
20.057
20.0258
19.9995
19.9774
19.9588
19.9431
19.93
19.9189
19.9095
19.9015
19.8946
19.8886
19.8835
19.879
19.8751
19.8717
19.8688
23.492
22.9438
22.4852
22.0994
21.7729
21.4955
21.2589
21.0565
20.883
20.734
20.6058
20.4954
20.4004
20.3187
20.2486
20.1884
20.137
20.0931
20.0559
20.0242
19.9975
19.9748
19.9556
19.9392
19.9253
19.9134
19.9032
19.8944
19.8869
19.8804
19.8748
19.8699
19.8656
19.8619
19.8587
23.492
22.9438
22.4852
22.0994
21.7729
21.4955
21.2589
21.0566
20.883
20.734
20.6058
20.4954
20.4004
20.3186
20.2484
20.1881
20.1364
20.0923
20.0547
20.0227
19.9955
19.9722
19.9524
19.9355
19.921
19.9086
19.8978
19.8885
19.8805
19.8735
19.8674
19.8622
19.8576
19.8536
19.8501
23.4921
22.9438
22.4852
22.0994
21.7729
21.4955
21.2589
21.0566
20.883
20.734
20.6057
20.4953
20.4003
20.3185
20.2481
20.1877
20.1359
20.0915
20.0536
20.0212
19.9935
19.9698
19.9495
19.9321
19.9171
19.9041
19.8929
19.8832
19.8748
19.8675
19.8612
19.8556
19.8508
19.8466
19.8429
23.4921
22.9438
22.4852
22.0994
21.7729
21.4955
21.2589
21.0566
20.883
20.734
20.6057
20.4953
20.4002
20.3183
20.2479
20.1873
20.1353
20.0907
20.0525
20.0197
19.9916
19.9675
19.9467
19.9288
19.9134
19.9001
19.8885
19.8785
19.8697
19.8621
19.8555
19.8498
19.8448
19.8404
19.8366
23.4921
22.9438
22.4852
22.0994
21.7729
21.4955
21.2589
21.0566
20.883
20.734
20.6057
20.4953
20.4001
20.3182
20.2476
20.1869
20.1347
20.0899
20.0514
20.0183
19.9898
19.9653
19.9441
19.9259
19.91
19.8963
19.8845
19.8741
19.8651
19.8573
19.8505
19.8446
19.8394
19.8349
19.8309
23.4921
22.9438
22.4852
22.0994
21.7729
21.4955
21.2589
21.0566
20.883
20.734
20.6057
20.4952
20.4
20.318
20.2474
20.1865
20.1342
20.0891
20.0503
20.0169
19.988
19.9632
19.9417
19.9231
19.907
19.893
19.8808
19.8702
19.861
19.853
19.846
19.8399
19.8346
19.83
19.8259
23.4921
22.9438
22.4852
22.0994
21.7729
21.4955
21.2589
21.0566
20.883
20.734
20.6057
20.4952
20.3999
20.3179
20.2471
20.1861
20.1336
20.0883
20.0492
20.0155
19.9864
19.9612
19.9394
19.9205
19.9041
19.8899
19.8775
19.8667
19.8573
19.8491
19.842
19.8358
19.8303
19.8256
19.8215
23.4921
22.9438
22.4852
22.0994
21.7729
21.4955
21.2589
21.0566
20.8831
20.7339
20.6056
20.4951
20.3998
20.3177
20.2468
20.1857
20.133
20.0875
20.0482
20.0142
19.9849
19.9594
19.9374
19.9182
19.9016
19.8871
19.8745
19.8636
19.854
19.8457
19.8384
19.8321
19.8266
19.8217
19.8175
23.4921
22.9438
22.4852
22.0994
21.7729
21.4955
21.259
21.0566
20.8831
20.7339
20.6056
20.4951
20.3997
20.3175
20.2466
20.1853
20.1324
20.0867
20.0472
20.013
19.9834
19.9577
19.9354
19.9161
19.8992
19.8846
19.8718
19.8607
19.8511
19.8426
19.8352
19.8288
19.8232
19.8183
19.8141
23.4921
22.9438
22.4853
22.0994
21.7729
21.4955
21.259
21.0566
20.8831
20.7339
20.6056
20.495
20.3996
20.3173
20.2463
20.1849
20.1319
20.086
20.0463
20.0119
19.9821
19.9562
19.9337
19.9142
19.8971
19.8823
19.8695
19.8582
19.8484
19.8399
19.8324
19.8259
19.8203
19.8153
19.811
23.4921
22.9438
22.4853
22.0994
21.7729
21.4955
21.259
21.0566
20.8831
20.7339
20.6056
20.495
20.3995
20.3172
20.246
20.1845
20.1313
20.0853
20.0454
20.0108
19.9808
19.9548
19.9321
19.9124
19.8953
19.8803
19.8673
19.856
19.8461
19.8375
19.83
19.8234
19.8177
19.8127
19.8083
23.4921
22.9438
22.4853
22.0994
21.7729
21.4955
21.259
21.0566
20.8831
20.7339
20.6056
20.4949
20.3994
20.317
20.2458
20.1841
20.1308
20.0846
20.0446
20.0099
19.9797
19.9535
19.9307
19.9108
19.8936
19.8785
19.8654
19.854
19.844
19.8353
19.8278
19.8212
19.8154
19.8103
19.8059
23.4921
22.9438
22.4853
22.0994
21.7729
21.4956
21.259
21.0566
20.8831
20.7339
20.6055
20.4949
20.3993
20.3168
20.2455
20.1838
20.1303
20.084
20.0438
20.009
19.9787
19.9523
19.9294
19.9095
19.8921
19.8769
19.8638
19.8523
19.8422
19.8335
19.8258
19.8192
19.8134
19.8083
19.8039
23.4921
22.9438
22.4853
22.0994
21.7729
21.4956
21.259
21.0566
20.8831
20.7339
20.6055
20.4948
20.3992
20.3167
20.2452
20.1834
20.1299
20.0834
20.0431
20.0081
19.9777
19.9513
19.9283
19.9082
19.8908
19.8755
19.8623
19.8507
19.8406
19.8318
19.8242
19.8175
19.8116
19.8065
19.8021
23.4921
22.9438
22.4853
22.0994
21.773
21.4956
21.259
21.0567
20.8831
20.7339
20.6055
20.4948
20.3991
20.3165
20.245
20.1831
20.1295
20.0829
20.0425
20.0074
19.9769
19.9503
19.9272
19.9071
19.8896
19.8743
19.861
19.8494
19.8392
19.8304
19.8227
19.816
19.8101
19.805
19.8005
23.4921
22.9438
22.4853
22.0994
21.773
21.4956
21.259
21.0567
20.8831
20.7339
20.6055
20.4947
20.3991
20.3164
20.2448
20.1828
20.1291
20.0824
20.0419
20.0068
19.9762
19.9495
19.9263
19.9062
19.8886
19.8732
19.8599
19.8482
19.838
19.8292
19.8214
19.8147
19.8088
19.8037
19.7992
23.4921
22.9438
22.4853
22.0994
21.773
21.4956
21.2591
21.0567
20.8831
20.7339
20.6055
20.4947
20.399
20.3162
20.2446
20.1825
20.1287
20.082
20.0414
20.0062
19.9755
19.9488
19.9256
19.9053
19.8877
19.8723
19.8589
19.8472
19.837
19.8281
19.8204
19.8136
19.8077
19.8025
19.798
23.4921
22.9438
22.4853
22.0994
21.773
21.4956
21.2591
21.0567
20.8832
20.734
20.6055
20.4946
20.3989
20.3161
20.2444
20.1823
20.1284
20.0816
20.041
20.0057
19.9749
19.9482
19.9249
19.9046
19.8869
19.8715
19.8581
19.8463
19.8361
19.8272
19.8194
19.8126
19.8067
19.8015
19.797
23.4921
22.9438
22.4853
22.0994
21.773
21.4956
21.2591
21.0567
20.8832
20.734
20.6055
20.4946
20.3988
20.316
20.2443
20.1821
20.1282
20.0813
20.0406
20.0052
19.9744
19.9476
19.9243
19.904
19.8863
19.8708
19.8574
19.8456
19.8354
19.8264
19.8186
19.8118
19.8059
19.8007
19.7962
23.4921
22.9438
22.4853
22.0994
21.773
21.4957
21.2591
21.0568
20.8832
20.734
20.6055
20.4946
20.3988
20.3159
20.2441
20.1819
20.1279
20.081
20.0403
20.0049
19.974
19.9472
19.9238
19.9035
19.8857
19.8702
19.8568
19.845
19.8347
19.8258
19.818
19.8112
19.8052
19.8
19.7955
23.4921
22.9438
22.4853
22.0994
21.773
21.4957
21.2592
21.0568
20.8832
20.734
20.6055
20.4946
20.3988
20.3158
20.244
20.1818
20.1277
20.0808
20.04
20.0045
19.9737
19.9468
19.9234
19.903
19.8853
19.8698
19.8563
19.8445
19.8342
19.8252
19.8174
19.8106
19.8046
19.7994
19.7949
23.4921
22.9438
22.4853
22.0994
21.773
21.4957
21.2592
21.0568
20.8833
20.734
20.6055
20.4946
20.3987
20.3158
20.2439
20.1816
20.1276
20.0806
20.0398
20.0043
19.9734
19.9465
19.9231
19.9027
19.8849
19.8694
19.8558
19.8441
19.8338
19.8248
19.817
19.8101
19.8042
19.799
19.7944
23.4921
22.9438
22.4853
22.0995
21.7731
21.4957
21.2592
21.0569
20.8833
20.7341
20.6055
20.4946
20.3987
20.3158
20.2439
20.1816
20.1275
20.0805
20.0396
20.0041
19.9732
19.9462
19.9228
19.9024
19.8846
19.8691
19.8555
19.8437
19.8334
19.8244
19.8166
19.8098
19.8038
19.7986
19.794
23.4921
22.9438
22.4853
22.0995
21.7731
21.4958
21.2593
21.0569
20.8833
20.7341
20.6055
20.4946
20.3987
20.3157
20.2438
20.1815
20.1274
20.0804
20.0395
20.0039
19.973
19.9461
19.9226
19.9022
19.8843
19.8688
19.8553
19.8434
19.8331
19.8242
19.8163
19.8095
19.8035
19.7983
19.7937
23.4921
22.9438
22.4853
22.0995
21.7731
21.4958
21.2593
21.057
20.8834
20.7342
20.6056
20.4946
20.3987
20.3157
20.2438
20.1814
20.1273
20.0803
20.0394
20.0038
19.9729
19.9459
19.9224
19.902
19.8842
19.8686
19.8551
19.8432
19.8329
19.8239
19.8161
19.8092
19.8033
19.798
19.7935
23.4921
22.9438
22.4853
22.0995
21.7731
21.4958
21.2593
21.057
20.8834
20.7342
20.6056
20.4947
20.3988
20.3157
20.2438
20.1814
20.1273
20.0802
20.0393
20.0037
19.9728
19.9458
19.9223
19.9019
19.884
19.8685
19.8549
19.8431
19.8328
19.8238
19.8159
19.8091
19.8031
19.7979
19.7933
23.4921
22.9438
22.4853
22.0995
21.7731
21.4958
21.2594
21.057
20.8835
20.7343
20.6057
20.4947
20.3988
20.3158
20.2438
20.1814
20.1273
20.0802
20.0393
20.0037
19.9727
19.9457
19.9222
19.9018
19.8839
19.8684
19.8548
19.843
19.8327
19.8237
19.8158
19.8089
19.803
19.7977
19.7932
23.4921
22.9438
22.4853
22.0995
21.7732
21.4959
21.2594
21.0571
20.8835
20.7343
20.6057
20.4948
20.3988
20.3158
20.2439
20.1814
20.1273
20.0802
20.0393
20.0037
19.9727
19.9457
19.9222
19.9017
19.8839
19.8683
19.8547
19.8429
19.8326
19.8236
19.8157
19.8089
19.8029
19.7977
19.7931
23.4921
22.9438
22.4853
22.0995
21.7732
21.4959
21.2594
21.0571
20.8836
20.7344
20.6058
20.4948
20.3989
20.3158
20.2439
20.1815
20.1273
20.0802
20.0393
20.0037
19.9727
19.9457
19.9222
19.9017
19.8839
19.8683
19.8547
19.8429
19.8326
19.8235
19.8157
19.8088
19.8028
19.7976
19.7931
23.4921
22.9438
22.4853
22.0995
21.7732
21.4959
21.2595
21.0572
20.8837
20.7344
20.6059
20.4949
20.3989
20.3159
20.2439
20.1815
20.1273
20.0802
20.0393
20.0037
19.9727
19.9457
19.9222
19.9017
19.8838
19.8683
19.8547
19.8429
19.8325
19.8235
19.8157
19.8088
19.8028
19.7976
19.793
23.4921
22.9438
22.4853
22.0996
21.7732
21.496
21.2595
21.0573
20.8837
20.7345
20.6059
20.4949
20.399
20.316
20.244
20.1816
20.1274
20.0803
20.0393
20.0037
19.9727
19.9457
19.9222
19.9017
19.8839
19.8683
19.8547
19.8429
19.8325
19.8235
19.8157
19.8088
19.8028
19.7976
19.793
23.4921
22.9438
22.4853
22.0996
21.7733
21.496
21.2596
21.0573
20.8838
20.7346
20.606
20.495
20.3991
20.316
20.2441
20.1816
20.1274
20.0803
20.0394
20.0038
19.9728
19.9458
19.9222
19.9018
19.8839
19.8683
19.8547
19.8429
19.8326
19.8236
19.8157
19.8088
19.8028
19.7976
19.793
23.4921
22.9438
22.4853
22.0996
21.7733
21.496
21.2596
21.0574
20.8838
20.7346
20.606
20.4951
20.3991
20.3161
20.2441
20.1817
20.1275
20.0804
20.0394
20.0038
19.9728
19.9458
19.9223
19.9018
19.8839
19.8684
19.8548
19.8429
19.8326
19.8236
19.8157
19.8089
19.8029
19.7976
19.7931
23.4921
22.9438
22.4854
22.0996
21.7733
21.4961
21.2597
21.0574
20.8839
20.7347
20.6061
20.4951
20.3992
20.3161
20.2442
20.1817
20.1275
20.0804
20.0395
20.0039
19.9728
19.9458
19.9223
19.9018
19.884
19.8684
19.8548
19.843
19.8326
19.8236
19.8158
19.8089
19.8029
19.7977
19.7931
23.4921
22.9438
22.4854
22.0996
21.7733
21.4961
21.2597
21.0574
20.8839
20.7347
20.6062
20.4952
20.3993
20.3162
20.2442
20.1818
20.1276
20.0805
20.0395
20.0039
19.9729
19.9459
19.9224
19.9019
19.884
19.8684
19.8549
19.843
19.8327
19.8237
19.8158
19.8089
19.8029
19.7977
19.7931
23.4921
22.9438
22.4854
22.0996
21.7733
21.4961
21.2597
21.0575
20.884
20.7348
20.6062
20.4952
20.3993
20.3163
20.2443
20.1818
20.1276
20.0805
20.0396
20.0039
19.9729
19.9459
19.9224
19.9019
19.8841
19.8685
19.8549
19.843
19.8327
19.8237
19.8158
19.809
19.803
19.7977
19.7932
23.4921
22.9438
22.4854
22.0996
21.7733
21.4961
21.2598
21.0575
20.884
20.7348
20.6063
20.4953
20.3994
20.3163
20.2443
20.1819
20.1277
20.0806
20.0396
20.004
19.973
19.946
19.9224
19.9019
19.8841
19.8685
19.8549
19.8431
19.8327
19.8237
19.8159
19.809
19.803
19.7978
19.7932
23.4921
22.9438
22.4854
22.0996
21.7734
21.4962
21.2598
21.0575
20.8841
20.7349
20.6063
20.4953
20.3994
20.3163
20.2444
20.1819
20.1277
20.0806
20.0396
20.004
19.973
19.946
19.9225
19.902
19.8841
19.8685
19.8549
19.8431
19.8328
19.8237
19.8159
19.809
19.803
19.7978
19.7932
23.4921
22.9438
22.4854
22.0996
21.7734
21.4962
21.2598
21.0576
20.8841
20.7349
20.6063
20.4954
20.3994
20.3164
20.2444
20.1819
20.1277
20.0806
20.0397
20.004
19.973
19.946
19.9225
19.902
19.8841
19.8685
19.855
19.8431
19.8328
19.8238
19.8159
19.809
19.803
19.7978
19.7932
23.4921
22.9438
22.4854
22.0996
21.7734
21.4962
21.2598
21.0576
20.8841
20.7349
20.6063
20.4954
20.3994
20.3164
20.2444
20.182
20.1277
20.0806
20.0397
20.004
19.973
19.946
19.9225
19.902
19.8841
19.8685
19.855
19.8431
19.8328
19.8237
19.8159
19.809
19.803
19.7978
19.7932
23.4921
22.9438
22.4854
22.0996
21.7734
21.4962
21.2598
21.0576
20.8841
20.7349
20.6064
20.4954
20.3994
20.3164
20.2444
20.182
20.1277
20.0806
20.0397
20.004
19.973
19.946
19.9225
19.902
19.8841
19.8685
19.8549
19.8431
19.8328
19.8237
19.8159
19.809
19.803
19.7978
19.7932
23.4921
22.9438
22.4854
22.0996
21.7734
21.4962
21.2598
21.0576
20.8841
20.7349
20.6064
20.4954
20.3994
20.3164
20.2444
20.182
20.1277
20.0806
20.0397
20.004
19.973
19.946
19.9225
19.902
19.8841
19.8685
19.8549
19.8431
19.8327
19.8237
19.8158
19.809
19.803
19.7977
19.7932
23.4921
22.9438
22.4854
22.0996
21.7734
21.4962
21.2598
21.0576
20.8841
20.7349
20.6064
20.4954
20.3994
20.3164
20.2444
20.1819
20.1277
20.0806
20.0396
20.004
19.973
19.946
19.9224
19.9019
19.8841
19.8685
19.8549
19.843
19.8327
19.8237
19.8158
19.8089
19.8029
19.7977
19.7931
23.4921
22.9438
22.4854
22.0996
21.7734
21.4962
21.2598
21.0576
20.8841
20.7349
20.6063
20.4954
20.3994
20.3164
20.2444
20.1819
20.1277
20.0806
20.0396
20.004
19.9729
19.9459
19.9224
19.9019
19.884
19.8684
19.8548
19.843
19.8326
19.8236
19.8158
19.8089
19.8029
19.7977
19.7931
23.4921
22.9438
22.4854
22.0996
21.7734
21.4962
21.2598
21.0576
20.8841
20.7349
20.6063
20.4953
20.3994
20.3163
20.2443
20.1819
20.1277
20.0805
20.0396
20.0039
19.9729
19.9459
19.9223
19.9018
19.884
19.8684
19.8548
19.8429
19.8326
19.8236
19.8157
19.8088
19.8028
19.7976
19.793
23.4921
22.9438
22.4854
22.0996
21.7734
21.4962
21.2598
21.0576
20.8841
20.7349
20.6063
20.4953
20.3993
20.3163
20.2443
20.1818
20.1276
20.0805
20.0395
20.0039
19.9728
19.9458
19.9223
19.9018
19.8839
19.8683
19.8547
19.8429
19.8325
19.8235
19.8156
19.8088
19.8028
19.7975
19.793
23.4921
22.9438
22.4853
22.0996
21.7734
21.4962
21.2598
21.0575
20.884
20.7348
20.6063
20.4953
20.3993
20.3162
20.2442
20.1818
20.1276
20.0804
20.0395
20.0038
19.9728
19.9458
19.9222
19.9017
19.8838
19.8682
19.8547
19.8428
19.8325
19.8234
19.8156
19.8087
19.8027
19.7975
19.7929
23.4921
22.9438
22.4853
22.0996
21.7733
21.4962
21.2598
21.0575
20.884
20.7348
20.6062
20.4952
20.3993
20.3162
20.2442
20.1817
20.1275
20.0804
20.0394
20.0037
19.9727
19.9457
19.9222
19.9016
19.8838
19.8682
19.8546
19.8427
19.8324
19.8234
19.8155
19.8086
19.8026
19.7974
19.7928
23.4921
22.9438
22.4853
22.0996
21.7733
21.4961
21.2597
21.0575
20.884
20.7348
20.6062
20.4952
20.3992
20.3161
20.2441
20.1817
20.1274
20.0803
20.0393
20.0037
19.9726
19.9456
19.9221
19.9016
19.8837
19.8681
19.8545
19.8427
19.8323
19.8233
19.8154
19.8085
19.8025
19.7973
19.7927
23.4921
22.9438
22.4853
22.0996
21.7733
21.4961
21.2597
21.0575
20.884
20.7347
20.6061
20.4951
20.3992
20.3161
20.2441
20.1816
20.1274
20.0802
20.0393
20.0036
19.9726
19.9455
19.922
19.9015
19.8836
19.868
19.8544
19.8426
19.8322
19.8232
19.8153
19.8085
19.8025
19.7972
19.7927
23.4921
22.9438
22.4853
22.0996
21.7733
21.4961
21.2597
21.0574
20.8839
20.7347
20.6061
20.4951
20.3991
20.316
20.244
20.1816
20.1273
20.0802
20.0392
20.0035
19.9725
19.9455
19.9219
19.9014
19.8835
19.8679
19.8544
19.8425
19.8321
19.8231
19.8152
19.8084
19.8024
19.7971
19.7926
23.4921
22.9438
22.4853
22.0996
21.7733
21.4961
21.2597
21.0574
20.8839
20.7347
20.6061
20.495
20.3991
20.316
20.244
20.1815
20.1272
20.0801
20.0391
20.0035
19.9724
19.9454
19.9219
19.9013
19.8835
19.8679
19.8543
19.8424
19.8321
19.823
19.8152
19.8083
19.8023
19.7971
19.7925
23.4921
22.9438
22.4853
22.0996
21.7733
21.4961
21.2597
21.0574
20.8839
20.7346
20.606
20.495
20.399
20.3159
20.2439
20.1814
20.1272
20.0801
20.0391
20.0034
19.9724
19.9453
19.9218
19.9013
19.8834
19.8678
19.8542
19.8423
19.832
19.823
19.8151
19.8082
19.8022
19.797
19.7924
23.4921
22.9438
22.4853
22.0996
21.7733
21.4961
21.2596
21.0574
20.8838
20.7346
20.606
20.495
20.399
20.3159
20.2439
20.1814
20.1271
20.08
20.039
20.0033
19.9723
19.9453
19.9217
19.9012
19.8833
19.8677
19.8541
19.8423
19.8319
19.8229
19.815
19.8081
19.8022
19.7969
19.7923
23.4921
22.9438
22.4853
22.0995
21.7733
21.496
21.2596
21.0573
20.8838
20.7346
20.6059
20.4949
20.3989
20.3158
20.2438
20.1813
20.1271
20.0799
20.0389
20.0033
19.9722
19.9452
19.9217
19.9011
19.8833
19.8677
19.8541
19.8422
19.8319
19.8228
19.815
19.8081
19.8021
19.7968
19.7923
23.4921
22.9438
22.4853
22.0995
21.7732
21.496
21.2596
21.0573
20.8838
20.7345
20.6059
20.4949
20.3989
20.3158
20.2438
20.1813
20.127
20.0799
20.0389
20.0032
19.9722
19.9452
19.9216
19.9011
19.8832
19.8676
19.854
19.8421
19.8318
19.8228
19.8149
19.808
19.802
19.7968
19.7922
23.4921
22.9438
22.4853
22.0995
21.7732
21.496
21.2596
21.0573
20.8838
20.7345
20.6059
20.4949
20.3989
20.3158
20.2437
20.1812
20.127
20.0798
20.0388
20.0032
19.9721
19.9451
19.9216
19.901
19.8831
19.8676
19.854
19.8421
19.8317
19.8227
19.8148
19.808
19.802
19.7967
19.7922
23.4921
22.9438
22.4853
22.0995
21.7732
21.496
21.2596
21.0573
20.8837
20.7345
20.6059
20.4948
20.3988
20.3157
20.2437
20.1812
20.1269
20.0798
20.0388
20.0031
19.9721
19.9451
19.9215
19.901
19.8831
19.8675
19.8539
19.842
19.8317
19.8227
19.8148
19.8079
19.8019
19.7967
19.7921
23.4921
22.9438
22.4853
22.0995
21.7732
21.496
21.2596
21.0573
20.8837
20.7345
20.6058
20.4948
20.3988
20.3157
20.2437
20.1812
20.1269
20.0798
20.0388
20.0031
19.9721
19.945
19.9215
19.9009
19.8831
19.8675
19.8539
19.842
19.8317
19.8226
19.8147
19.8079
19.8019
19.7966
19.7921
23.4921
22.9438
22.4853
22.0995
21.7732
21.496
21.2596
21.0573
20.8837
20.7344
20.6058
20.4948
20.3988
20.3157
20.2436
20.1811
20.1269
20.0797
20.0387
20.0031
19.972
19.945
19.9214
19.9009
19.883
19.8674
19.8538
19.842
19.8316
19.8226
19.8147
19.8078
19.8018
19.7966
19.792
23.492
22.9438
22.4853
22.0995
21.7732
21.496
21.2595
21.0572
20.8837
20.7344
20.6058
20.4948
20.3988
20.3157
20.2436
20.1811
20.1269
20.0797
20.0387
20.003
19.972
19.945
19.9214
19.9009
19.883
19.8674
19.8538
19.8419
19.8316
19.8226
19.8147
19.8078
19.8018
19.7966
19.792
23.492
22.9438
22.4853
22.0995
21.7732
21.496
21.2595
21.0572
20.8837
20.7344
20.6058
20.4948
20.3988
20.3156
20.2436
20.1811
20.1268
20.0797
20.0387
20.003
19.972
19.9449
19.9214
19.9009
19.883
19.8674
19.8538
19.8419
19.8316
19.8225
19.8147
19.8078
19.8018
19.7965
19.792
23.492
22.9438
22.4853
22.0995
21.7732
21.496
21.2595
21.0572
20.8837
20.7344
20.6058
20.4947
20.3987
20.3156
20.2436
20.1811
20.1268
20.0797
20.0387
20.003
19.972
19.9449
19.9214
19.9009
19.883
19.8674
19.8538
19.8419
19.8316
19.8225
19.8147
19.8078
19.8018
19.7965
19.792
20.0203
20.0203
20.0203
20.0202
20.0202
20.0201
20.02
20.02
20.0199
20.0198
20.0197
20.0196
20.0195
20.0194
20.0193
20.0192
20.0191
20.0189
20.0188
20.0187
20.0185
20.0184