/*--------------------------------*- C++ -*----------------------------------*\
| =========                 |                                                 |
| \\      /  F ield         | OpenFOAM: The Open Source CFD Toolbox           |
|  \\    /   O peration     | Version:  v1912                                 |
|   \\  /    A nd           | Website:  www.openfoam.com                      |
|    \\/     M anipulation  |                                                 |
\*---------------------------------------------------------------------------*/
FoamFile
{
    version     2.0;
    format      ascii;
    class       surfaceScalarField;
    location    "5000";
    object      phi;
}
// * * * * * * * * * * * * * * * * * * * * * * * * * * * * * * * * * * * * * //

dimensions      [0 3 -1 0 0 0 0];
oriented        oriented;


internalField   nonuniform List<scalar> 
132610
(
1.09828e-05
9.22863e-10
1.09806e-05
2.16602e-09
1.09773e-05
3.3586e-09
1.09731e-05
4.22571e-09
1.0968e-05
5.04879e-09
1.09622e-05
5.80679e-09
1.09557e-05
6.54656e-09
1.09484e-05
7.28475e-09
1.09403e-05
8.03855e-09
1.09315e-05
8.82065e-09
1.09219e-05
9.64323e-09
1.09114e-05
1.05176e-08
1.08999e-05
1.1456e-08
1.08874e-05
1.24717e-08
1.08738e-05
1.35779e-08
1.0859e-05
1.47998e-08
1.08429e-05
1.61417e-08
1.08253e-05
1.76399e-08
1.08059e-05
1.93691e-08
1.07846e-05
2.1339e-08
1.0761e-05
2.3581e-08
1.07348e-05
2.61724e-08
1.07056e-05
2.92088e-08
1.06728e-05
3.28105e-08
1.06356e-05
3.71845e-08
1.0593e-05
4.25594e-08
1.05435e-05
4.94928e-08
1.04852e-05
5.83227e-08
1.0414e-05
7.11817e-08
1.03265e-05
8.75732e-08
1.02068e-05
1.1969e-07
1.00505e-05
1.56268e-07
9.75977e-06
2.9074e-07
9.28389e-06
4.75882e-07
1.9883e-06
7.29559e-06
1.16591e-05
1.90243e-09
1.16568e-05
4.46559e-09
1.16532e-05
6.92385e-09
1.16488e-05
8.71167e-09
1.16434e-05
1.04084e-08
1.16372e-05
1.19711e-08
1.16303e-05
1.34962e-08
1.16225e-05
1.5018e-08
1.1614e-05
1.6572e-08
1.16046e-05
1.81843e-08
1.15944e-05
1.988e-08
1.15832e-05
2.16824e-08
1.15711e-05
2.36169e-08
1.15578e-05
2.57107e-08
1.15434e-05
2.79909e-08
1.15277e-05
3.05095e-08
1.15106e-05
3.32752e-08
1.14919e-05
3.63623e-08
1.14713e-05
3.99257e-08
1.14487e-05
4.39829e-08
1.14236e-05
4.86002e-08
1.13959e-05
5.3935e-08
1.13649e-05
6.01829e-08
1.13301e-05
6.75926e-08
1.12907e-05
7.65849e-08
1.12457e-05
8.76355e-08
1.11933e-05
1.01844e-07
1.11316e-05
1.19984e-07
1.10568e-05
1.46034e-07
1.09645e-05
1.79853e-07
1.08418e-05
2.42402e-07
1.06786e-05
3.19442e-07
1.04171e-05
5.52299e-07
1.00203e-05
8.72677e-07
2.40238e-06
9.60619e-06
1.2377e-05
2.94227e-09
1.23746e-05
6.90682e-09
1.23708e-05
1.07086e-08
1.23661e-05
1.34738e-08
1.23604e-05
1.6098e-08
1.23538e-05
1.85149e-08
1.23464e-05
2.08736e-08
1.23382e-05
2.32273e-08
1.23292e-05
2.56307e-08
1.23192e-05
2.81242e-08
1.23084e-05
3.07468e-08
1.22965e-05
3.35343e-08
1.22836e-05
3.65259e-08
1.22696e-05
3.97637e-08
1.22543e-05
4.32898e-08
1.22376e-05
4.71842e-08
1.22194e-05
5.14602e-08
1.21995e-05
5.62325e-08
1.21777e-05
6.17405e-08
1.21537e-05
6.80094e-08
1.21271e-05
7.51427e-08
1.20977e-05
8.33809e-08
1.20649e-05
9.30243e-08
1.2028e-05
1.04455e-07
1.19863e-05
1.18315e-07
1.19386e-05
1.35335e-07
1.18833e-05
1.57151e-07
1.18182e-05
1.85004e-07
1.17397e-05
2.24518e-07
1.16433e-05
2.76308e-07
1.15184e-05
3.67254e-07
1.13533e-05
4.84596e-07
1.11247e-05
7.80854e-07
1.0828e-05
1.16939e-06
2.39685e-06
1.08335e-05
1.31392e-05
4.04609e-09
1.31366e-05
9.49841e-09
1.31326e-05
1.47263e-08
1.31275e-05
1.85292e-08
1.31215e-05
2.21379e-08
1.31145e-05
2.54616e-08
1.31067e-05
2.87052e-08
1.3098e-05
3.19419e-08
1.30884e-05
3.52469e-08
1.30778e-05
3.86758e-08
1.30663e-05
4.22821e-08
1.30537e-05
4.6115e-08
1.304e-05
5.02284e-08
1.30251e-05
5.46803e-08
1.30088e-05
5.95281e-08
1.29911e-05
6.48818e-08
1.29718e-05
7.07595e-08
1.29508e-05
7.7318e-08
1.29276e-05
8.48863e-08
1.29021e-05
9.34969e-08
1.2874e-05
1.03292e-07
1.28428e-05
1.14598e-07
1.2808e-05
1.27824e-07
1.27689e-05
1.4349e-07
1.27248e-05
1.62459e-07
1.26744e-05
1.85724e-07
1.26161e-05
2.15428e-07
1.25478e-05
2.53305e-07
1.2466e-05
3.06306e-07
1.23662e-05
3.76112e-07
1.22412e-05
4.92271e-07
1.20797e-05
6.46116e-07
1.18873e-05
9.7327e-07
1.16683e-05
1.38838e-06
2.30442e-06
1.17607e-05
1.39483e-05
5.21781e-09
1.39455e-05
1.22496e-08
1.39412e-05
1.89913e-08
1.39359e-05
2.38959e-08
1.39295e-05
2.85496e-08
1.39221e-05
3.28359e-08
1.39138e-05
3.70188e-08
1.39045e-05
4.11928e-08
1.38943e-05
4.54548e-08
1.38831e-05
4.98765e-08
1.38709e-05
5.45268e-08
1.38575e-05
5.94691e-08
1.3843e-05
6.47729e-08
1.38271e-05
7.05127e-08
1.38099e-05
7.67625e-08
1.37911e-05
8.36635e-08
1.37706e-05
9.12388e-08
1.37483e-05
9.96896e-08
1.37237e-05
1.09439e-07
1.36967e-05
1.20527e-07
1.36669e-05
1.33134e-07
1.36338e-05
1.47676e-07
1.35969e-05
1.64673e-07
1.35556e-05
1.84784e-07
1.3509e-05
2.09091e-07
1.34559e-05
2.38846e-07
1.33947e-05
2.76651e-07
1.33232e-05
3.24722e-07
1.32386e-05
3.90954e-07
1.31366e-05
4.78143e-07
1.30132e-05
6.15598e-07
1.28608e-05
7.98562e-07
1.27022e-05
1.13183e-06
1.25478e-05
1.54276e-06
2.21622e-06
1.2636e-05
1.48072e-05
6.46161e-09
1.48042e-05
1.51703e-08
1.47997e-05
2.35188e-08
1.4794e-05
2.95929e-08
1.47872e-05
3.5356e-08
1.47794e-05
4.06641e-08
1.47706e-05
4.58441e-08
1.47607e-05
5.10129e-08
1.47499e-05
5.62906e-08
1.4738e-05
6.1766e-08
1.4725e-05
6.75241e-08
1.47108e-05
7.36437e-08
1.46954e-05
8.02103e-08
1.46786e-05
8.73162e-08
1.46603e-05
9.50525e-08
1.46404e-05
1.03594e-07
1.46186e-05
1.12967e-07
1.45949e-05
1.23421e-07
1.45689e-05
1.35478e-07
1.45402e-05
1.49182e-07
1.45086e-05
1.64755e-07
1.44736e-05
1.82704e-07
1.44346e-05
2.03657e-07
1.4391e-05
2.28415e-07
1.43418e-05
2.58268e-07
1.42859e-05
2.94713e-07
1.42218e-05
3.40742e-07
1.41475e-05
3.99003e-07
1.40606e-05
4.77894e-07
1.39576e-05
5.81097e-07
1.38379e-05
7.35366e-07
1.36984e-05
9.3803e-07
1.35692e-05
1.26101e-06
1.34699e-05
1.64214e-06
2.137e-06
1.35491e-05
1.57189e-05
7.78189e-09
1.57158e-05
1.82709e-08
1.5711e-05
2.83249e-08
1.5705e-05
3.56406e-08
1.56978e-05
4.25812e-08
1.56895e-05
4.8974e-08
1.56801e-05
5.52123e-08
1.56697e-05
6.14371e-08
1.56582e-05
6.77927e-08
1.56455e-05
7.43864e-08
1.56317e-05
8.132e-08
1.56167e-05
8.86885e-08
1.56003e-05
9.65946e-08
1.55825e-05
1.05149e-07
1.55631e-05
1.14461e-07
1.55419e-05
1.2474e-07
1.55189e-05
1.36018e-07
1.54937e-05
1.48591e-07
1.54661e-05
1.63085e-07
1.54357e-05
1.79549e-07
1.54022e-05
1.98245e-07
1.53652e-05
2.1977e-07
1.5324e-05
2.44861e-07
1.52779e-05
2.74452e-07
1.52262e-05
3.10028e-07
1.51676e-05
3.53304e-07
1.51008e-05
4.07567e-07
1.5024e-05
4.75801e-07
1.49354e-05
5.66433e-07
1.48329e-05
6.83578e-07
1.47186e-05
8.49748e-07
1.45943e-05
1.06225e-06
1.44917e-05
1.36369e-06
1.44352e-05
1.69865e-06
2.05849e-06
1.45137e-05
1.66869e-05
9.18336e-09
1.66836e-05
2.15624e-08
1.66785e-05
3.34267e-08
1.66721e-05
4.20606e-08
1.66644e-05
5.0251e-08
1.66556e-05
5.77952e-08
1.66456e-05
6.51568e-08
1.66346e-05
7.25023e-08
1.66223e-05
8.0002e-08
1.6609e-05
8.77821e-08
1.65943e-05
9.5963e-08
1.65783e-05
1.04656e-07
1.6561e-05
1.13983e-07
1.6542e-05
1.24073e-07
1.65214e-05
1.35055e-07
1.6499e-05
1.47173e-07
1.64746e-05
1.60467e-07
1.64479e-05
1.75279e-07
1.64186e-05
1.92345e-07
1.63864e-05
2.11715e-07
1.6351e-05
2.33692e-07
1.63118e-05
2.58959e-07
1.62683e-05
2.8836e-07
1.62198e-05
3.22952e-07
1.61654e-05
3.64386e-07
1.61042e-05
4.14557e-07
1.60348e-05
4.76929e-07
1.5956e-05
5.54671e-07
1.58666e-05
6.55766e-07
1.5766e-05
7.8416e-07
1.56587e-05
9.57075e-07
1.55509e-05
1.17011e-06
1.54722e-05
1.44231e-06
1.54471e-05
1.72375e-06
1.97919e-06
1.55264e-05
1.77144e-05
1.0671e-08
1.77109e-05
2.50567e-08
1.77055e-05
3.88424e-08
1.76987e-05
4.88757e-08
1.76905e-05
5.83928e-08
1.76812e-05
6.7159e-08
1.76706e-05
7.57129e-08
1.76589e-05
8.42478e-08
1.76459e-05
9.29615e-08
1.76317e-05
1.02001e-07
1.76162e-05
1.11505e-07
1.75992e-05
1.21603e-07
1.75808e-05
1.32435e-07
1.75607e-05
1.44153e-07
1.75388e-05
1.56903e-07
1.7515e-05
1.70968e-07
1.74891e-05
1.86392e-07
1.74608e-05
2.03568e-07
1.74298e-05
2.23345e-07
1.73958e-05
2.4577e-07
1.73583e-05
2.71184e-07
1.73169e-05
3.00355e-07
1.7271e-05
3.34221e-07
1.722e-05
3.73951e-07
1.71631e-05
4.21326e-07
1.70993e-05
4.78362e-07
1.70276e-05
5.48558e-07
1.69472e-05
6.35073e-07
1.6858e-05
7.44989e-07
1.67607e-05
8.81449e-07
1.66619e-05
1.05593e-06
1.65706e-05
1.26134e-06
1.65134e-05
1.49956e-06
1.6511e-05
1.72619e-06
1.90019e-06
1.659e-05
1.88052e-05
1.225e-08
1.88015e-05
2.87662e-08
1.87958e-05
4.45912e-08
1.87885e-05
5.61101e-08
1.87799e-05
6.70353e-08
1.87699e-05
7.70987e-08
1.87587e-05
8.6918e-08
1.87463e-05
9.67151e-08
1.87325e-05
1.06717e-07
1.87174e-05
1.17092e-07
1.87009e-05
1.27999e-07
1.86829e-05
1.39587e-07
1.86634e-05
1.52016e-07
1.86421e-05
1.65457e-07
1.86189e-05
1.8008e-07
1.85936e-05
1.96203e-07
1.85662e-05
2.13877e-07
1.85362e-05
2.33546e-07
1.85034e-05
2.56173e-07
1.84673e-05
2.81801e-07
1.84277e-05
3.10806e-07
1.8384e-05
3.44031e-07
1.83357e-05
3.825e-07
1.82822e-05
4.27468e-07
1.82228e-05
4.80798e-07
1.81566e-05
5.44554e-07
1.8083e-05
6.22108e-07
1.80017e-05
7.16379e-07
1.79136e-05
8.33134e-07
1.78209e-05
9.74144e-07
1.77316e-05
1.1452e-06
1.76566e-05
1.33631e-06
1.7618e-05
1.53818e-06
1.76317e-05
1.71246e-06
1.82264e-06
1.77093e-05
1.99632e-05
1.39261e-08
1.99592e-05
3.27042e-08
1.99531e-05
5.06935e-08
1.99455e-05
6.37897e-08
1.99363e-05
7.62094e-08
1.99257e-05
8.76496e-08
1.99138e-05
9.88118e-08
1.99006e-05
1.09948e-07
1.9886e-05
1.21317e-07
1.987e-05
1.33108e-07
1.98525e-05
1.45504e-07
1.98334e-05
1.58671e-07
1.98126e-05
1.72791e-07
1.979e-05
1.88057e-07
1.97655e-05
2.04661e-07
1.97387e-05
2.22958e-07
1.97096e-05
2.43008e-07
1.96778e-05
2.653e-07
1.96431e-05
2.9092e-07
1.9605e-05
3.19897e-07
1.95631e-05
3.5264e-07
1.95171e-05
3.90056e-07
1.94664e-05
4.33236e-07
1.94104e-05
4.83493e-07
1.93484e-05
5.4271e-07
1.92801e-05
6.12908e-07
1.9205e-05
6.97156e-07
1.91235e-05
7.97879e-07
1.90375e-05
9.19199e-07
1.89505e-05
1.06108e-06
1.88716e-05
1.22414e-06
1.8812e-05
1.39589e-06
1.87893e-05
1.56089e-06
1.88144e-05
1.68736e-06
1.74739e-06
1.88897e-05
2.11925e-05
1.57052e-08
2.11883e-05
3.68847e-08
2.11818e-05
5.71711e-08
2.11737e-05
7.19417e-08
2.11639e-05
8.59476e-08
2.11527e-05
9.88491e-08
2.11401e-05
1.11436e-07
2.1126e-05
1.23994e-07
2.11106e-05
1.36812e-07
2.10936e-05
1.50106e-07
2.1075e-05
1.64079e-07
2.10547e-05
1.7892e-07
2.10327e-05
1.94831e-07
2.10087e-05
2.12029e-07
2.09827e-05
2.30727e-07
2.09543e-05
2.51319e-07
2.09234e-05
2.73872e-07
2.08898e-05
2.98922e-07
2.0853e-05
3.27674e-07
2.08128e-05
3.60145e-07
2.07687e-05
3.96762e-07
2.07203e-05
4.38484e-07
2.0667e-05
4.86448e-07
2.06085e-05
5.41985e-07
2.05443e-05
6.06926e-07
2.04741e-05
6.83135e-07
2.03981e-05
7.732e-07
2.03171e-05
8.78803e-07
2.02342e-05
1.00218e-06
2.0154e-05
1.14126e-06
2.00858e-05
1.29233e-06
2.00404e-05
1.44123e-06
2.00311e-05
1.57027e-06
2.0064e-05
1.65444e-06
1.67504e-06
2.01363e-05
2.24974e-05
1.75935e-08
2.2493e-05
4.13227e-08
2.24861e-05
6.40468e-08
2.24775e-05
8.05951e-08
2.24671e-05
9.62843e-08
2.24553e-05
1.10737e-07
2.24419e-05
1.24836e-07
2.24269e-05
1.38902e-07
2.24105e-05
1.53258e-07
2.23925e-05
1.68145e-07
2.23727e-05
1.83791e-07
2.23513e-05
2.00404e-07
2.23279e-05
2.18212e-07
2.23025e-05
2.37452e-07
2.22748e-05
2.58362e-07
2.22448e-05
2.81374e-07
2.22121e-05
3.06561e-07
2.21765e-05
3.34503e-07
2.21376e-05
3.66527e-07
2.20952e-05
4.02627e-07
2.20487e-05
4.4324e-07
2.19978e-05
4.89359e-07
2.19421e-05
5.42135e-07
2.18812e-05
6.02867e-07
2.18149e-05
6.73254e-07
2.17432e-05
7.5488e-07
2.16667e-05
8.4967e-07
2.15872e-05
9.5834e-07
2.15082e-05
1.08113e-06
2.14356e-05
1.21392e-06
2.13782e-05
1.3497e-06
2.13457e-05
1.47368e-06
2.13473e-05
1.56868e-06
2.13855e-05
1.61629e-06
1.60591e-06
2.14546e-05
2.38828e-05
1.95977e-08
2.38781e-05
4.6034e-08
2.38708e-05
7.13451e-08
2.38616e-05
8.97806e-08
2.38506e-05
1.07256e-07
2.3838e-05
1.23355e-07
2.38238e-05
1.39058e-07
2.38079e-05
1.54723e-07
2.37905e-05
1.70711e-07
2.37714e-05
1.87287e-07
2.37504e-05
2.04705e-07
2.37276e-05
2.23196e-07
2.37028e-05
2.43009e-07
2.36759e-05
2.64408e-07
2.36466e-05
2.87653e-07
2.36148e-05
3.13213e-07
2.35802e-05
3.41167e-07
2.35425e-05
3.72135e-07
2.35015e-05
4.07566e-07
2.34567e-05
4.4742e-07
2.34078e-05
4.92132e-07
2.33545e-05
5.42703e-07
2.32963e-05
6.00262e-07
2.32332e-05
6.66022e-07
2.3165e-05
7.41449e-07
2.30921e-05
8.27719e-07
2.30159e-05
9.25931e-07
2.29386e-05
1.03566e-06
2.28645e-05
1.15517e-06
2.27999e-05
1.2785e-06
2.27532e-05
1.39646e-06
2.27322e-05
1.49468e-06
2.27426e-05
1.55825e-06
2.27841e-05
1.57478e-06
1.54015e-06
2.28499e-05
2.53534e-05
2.17249e-08
2.53484e-05
5.10354e-08
2.53407e-05
7.90917e-08
2.53309e-05
9.95307e-08
2.53193e-05
1.18902e-07
2.53059e-05
1.36747e-07
2.52908e-05
1.54153e-07
2.5274e-05
1.71515e-07
2.52555e-05
1.89232e-07
2.52352e-05
2.07598e-07
2.5213e-05
2.26893e-07
2.51888e-05
2.47371e-07
2.51625e-05
2.69306e-07
2.51339e-05
2.92985e-07
2.51029e-05
3.18691e-07
2.50692e-05
3.4693e-07
2.50325e-05
3.77786e-07
2.49928e-05
4.11913e-07
2.49495e-05
4.50876e-07
2.49023e-05
4.94594e-07
2.48509e-05
5.43482e-07
2.47951e-05
5.98518e-07
2.47346e-05
6.60766e-07
2.46694e-05
7.31283e-07
2.45996e-05
8.11203e-07
2.45262e-05
9.01162e-07
2.44508e-05
1.0013e-06
2.43765e-05
1.10995e-06
2.43081e-05
1.22354e-06
2.4252e-05
1.33467e-06
2.42154e-05
1.43306e-06
2.42044e-05
1.50568e-06
2.42218e-05
1.54079e-06
2.42653e-05
1.53128e-06
1.47777e-06
2.43277e-05
2.69146e-05
2.39826e-08
2.69093e-05
5.63447e-08
2.69011e-05
8.73141e-08
2.68907e-05
1.0988e-07
2.68784e-05
1.31263e-07
2.68642e-05
1.50961e-07
2.68481e-05
1.70173e-07
2.68303e-05
1.89334e-07
2.68107e-05
2.08885e-07
2.67891e-05
2.29148e-07
2.67656e-05
2.50431e-07
2.67399e-05
2.73011e-07
2.67121e-05
2.97189e-07
2.66818e-05
3.23272e-07
2.66489e-05
3.51571e-07
2.66132e-05
3.82619e-07
2.65745e-05
4.16513e-07
2.65325e-05
4.53926e-07
2.64868e-05
4.96535e-07
2.64372e-05
5.44209e-07
2.63833e-05
5.97317e-07
2.63251e-05
6.56779e-07
2.62623e-05
7.23544e-07
2.61952e-05
7.98433e-07
2.61242e-05
8.82149e-07
2.60507e-05
9.74662e-07
2.59769e-05
1.07506e-06
2.59065e-05
1.18042e-06
2.58444e-05
1.28562e-06
2.57968e-05
1.3823e-06
2.57697e-05
1.46013e-06
2.57673e-05
1.50806e-06
2.57902e-05
1.51787e-06
2.58347e-05
1.48678e-06
1.41865e-06
2.58938e-05
2.85719e-05
2.63787e-08
2.85663e-05
6.1981e-08
2.85576e-05
9.60411e-08
2.85466e-05
1.20865e-07
2.85335e-05
1.44382e-07
2.85184e-05
1.66047e-07
2.85014e-05
1.87175e-07
2.84825e-05
2.08244e-07
2.84616e-05
2.29737e-07
2.84388e-05
2.5201e-07
2.84138e-05
2.75397e-07
2.83866e-05
3.00201e-07
2.8357e-05
3.26745e-07
2.8325e-05
3.55363e-07
2.82901e-05
3.86387e-07
2.82524e-05
4.20379e-07
2.82115e-05
4.57442e-07
2.81671e-05
4.98262e-07
2.8119e-05
5.44616e-07
2.80669e-05
5.96311e-07
2.80106e-05
6.53644e-07
2.795e-05
7.17432e-07
2.7885e-05
7.88448e-07
2.78163e-05
8.67201e-07
2.77446e-05
9.53856e-07
2.76716e-05
1.04762e-06
2.76002e-05
1.1465e-06
2.75342e-05
1.24637e-06
2.74789e-05
1.34094e-06
2.74397e-05
1.4215e-06
2.74214e-05
1.47842e-06
2.74264e-05
1.50313e-06
2.74534e-05
1.4908e-06
2.74982e-05
1.44201e-06
1.36267e-06
2.75542e-05
3.03313e-05
2.89215e-08
3.03253e-05
6.79642e-08
3.03161e-05
1.05304e-07
3.03044e-05
1.32525e-07
3.02905e-05
1.58307e-07
3.02745e-05
1.82058e-07
3.02564e-05
2.05217e-07
3.02364e-05
2.28309e-07
3.02143e-05
2.51861e-07
3.019e-05
2.76262e-07
3.01635e-05
3.01874e-07
3.01347e-05
3.29027e-07
3.01034e-05
3.58069e-07
3.00694e-05
3.89355e-07
3.00325e-05
4.23239e-07
2.99926e-05
4.60308e-07
2.99494e-05
5.00669e-07
2.99026e-05
5.45006e-07
2.98521e-05
5.95182e-07
2.97974e-05
6.50932e-07
2.97386e-05
7.12444e-07
2.96757e-05
7.80384e-07
2.96089e-05
8.55286e-07
2.95388e-05
9.37257e-07
2.94668e-05
1.02584e-06
2.9395e-05
1.1194e-06
2.93266e-05
1.21489e-06
2.92658e-05
1.30717e-06
2.92176e-05
1.38921e-06
2.91866e-05
1.45249e-06
2.91762e-05
1.48878e-06
2.91873e-05
1.49208e-06
2.92174e-05
1.46062e-06
2.9262e-05
1.39747e-06
1.30964e-06
2.9315e-05
3.2199e-05
3.162e-08
3.21927e-05
7.43157e-08
3.21829e-05
1.15134e-07
3.21705e-05
1.449e-07
3.21557e-05
1.73084e-07
3.21387e-05
1.99049e-07
3.21196e-05
2.24362e-07
3.20983e-05
2.49598e-07
3.20748e-05
2.75332e-07
3.20491e-05
3.01985e-07
3.2021e-05
3.29951e-07
3.19905e-05
3.59583e-07
3.19573e-05
3.91257e-07
3.19213e-05
4.25347e-07
3.18823e-05
4.62229e-07
3.18401e-05
5.02503e-07
3.17945e-05
5.46285e-07
3.17453e-05
5.94234e-07
3.16922e-05
6.48282e-07
3.1635e-05
7.08083e-07
3.15738e-05
7.73671e-07
3.15087e-05
8.45504e-07
3.14401e-05
9.2381e-07
3.13692e-05
1.00821e-06
3.12975e-05
1.09756e-06
3.12275e-05
1.18936e-06
3.11628e-05
1.27957e-06
3.11077e-05
1.36231e-06
3.10666e-05
1.43027e-06
3.10434e-05
1.47569e-06
3.10401e-05
1.49207e-06
3.10562e-05
1.47599e-06
3.10886e-05
1.42822e-06
3.11326e-05
1.35353e-06
1.25937e-06
3.11828e-05
3.41818e-05
3.44837e-08
3.4175e-05
8.10581e-08
3.41646e-05
1.25567e-07
3.41515e-05
1.58034e-07
3.41358e-05
1.88767e-07
3.41178e-05
2.17079e-07
3.40974e-05
2.44676e-07
3.40749e-05
2.72185e-07
3.405e-05
3.00229e-07
3.40227e-05
3.29264e-07
3.39929e-05
3.59717e-07
3.39605e-05
3.91965e-07
3.39254e-05
4.26408e-07
3.38873e-05
4.63442e-07
3.38461e-05
5.03457e-07
3.38015e-05
5.47061e-07
3.37534e-05
5.94377e-07
3.37016e-05
6.46015e-07
3.3646e-05
7.03952e-07
3.35863e-05
7.6775e-07
3.35227e-05
8.37242e-07
3.34556e-05
9.12616e-07
3.33857e-05
9.93721e-07
3.33143e-05
1.07963e-06
3.32434e-05
1.16844e-06
3.31759e-05
1.25681e-06
3.31156e-05
1.33992e-06
3.30665e-05
1.4114e-06
3.30326e-05
1.46416e-06
3.30167e-05
1.49157e-06
3.30197e-05
1.48914e-06
3.30399e-05
1.4558e-06
3.30738e-05
1.39429e-06
3.31169e-05
1.31044e-06
1.21169e-06
3.31646e-05
3.62866e-05
3.75223e-08
3.62794e-05
8.82155e-08
3.62684e-05
1.36639e-07
3.62544e-05
1.71974e-07
3.62378e-05
2.05409e-07
3.62187e-05
2.36212e-07
3.61971e-05
2.6623e-07
3.61731e-05
2.96145e-07
3.61467e-05
3.26634e-07
3.61178e-05
3.5819e-07
3.60863e-05
3.91267e-07
3.6052e-05
4.26273e-07
3.60147e-05
4.63628e-07
3.59744e-05
5.03743e-07
3.59309e-05
5.47027e-07
3.58838e-05
5.94078e-07
3.58332e-05
6.45028e-07
3.57788e-05
7.00406e-07
3.57206e-05
7.62205e-07
3.56584e-05
8.29893e-07
3.55926e-05
9.03038e-07
3.55237e-05
9.81495e-07
3.54528e-05
1.06466e-06
3.53814e-05
1.15101e-06
3.5312e-05
1.23786e-06
3.52477e-05
1.32114e-06
3.51922e-05
1.39539e-06
3.51494e-05
1.45417e-06
3.51226e-05
1.491e-06
3.51134e-05
1.50072e-06
3.51217e-05
1.48084e-06
3.51452e-05
1.43233e-06
3.51801e-05
1.35938e-06
3.52222e-05
1.26838e-06
1.16642e-06
3.52674e-05
3.8521e-05
4.07465e-08
3.85134e-05
9.58131e-08
3.85017e-05
1.48388e-07
3.84869e-05
1.86768e-07
3.84692e-05
2.23069e-07
3.84489e-05
2.56512e-07
3.84261e-05
2.89096e-07
3.84007e-05
3.21561e-07
3.83727e-05
3.54637e-07
3.8342e-05
3.88855e-07
3.83086e-05
4.24702e-07
3.82722e-05
4.6261e-07
3.82328e-05
5.0302e-07
3.81902e-05
5.46356e-07
3.81442e-05
5.93038e-07
3.80946e-05
6.43643e-07
3.80414e-05
6.9831e-07
3.79843e-05
7.5745e-07
3.79235e-05
8.23034e-07
3.78589e-05
8.94438e-07
3.77911e-05
9.70897e-07
3.77207e-05
1.05186e-06
3.76491e-05
1.13623e-06
3.75783e-05
1.22181e-06
3.7511e-05
1.30522e-06
3.74504e-05
1.38172e-06
3.74002e-05
1.44555e-06
3.73639e-05
1.4905e-06
3.73438e-05
1.51108e-06
3.73408e-05
1.50375e-06
3.73537e-05
1.46794e-06
3.73798e-05
1.40628e-06
3.74152e-05
1.32394e-06
3.74562e-05
1.22744e-06
1.12339e-06
3.74992e-05
4.08931e-05
4.41673e-08
4.0885e-05
1.03878e-07
4.08725e-05
1.60855e-07
4.08568e-05
2.02467e-07
4.08381e-05
2.41808e-07
4.08166e-05
2.7805e-07
4.07923e-05
3.13353e-07
4.07653e-05
3.48517e-07
4.07356e-05
3.84328e-07
4.07031e-05
4.21358e-07
4.06677e-05
4.60124e-07
4.06293e-05
5.01082e-07
4.05876e-05
5.44693e-07
4.05425e-05
5.91388e-07
4.0494e-05
6.41591e-07
4.04418e-05
6.95842e-07
4.03858e-05
7.54285e-07
4.03261e-05
8.17171e-07
4.02627e-05
8.86402e-07
4.01959e-05
9.61276e-07
4.01262e-05
1.04061e-06
4.00547e-05
1.12339e-06
3.99829e-05
1.20795e-06
3.99133e-05
1.29146e-06
3.98486e-05
1.36988e-06
3.97923e-05
1.43801e-06
3.97478e-05
1.49005e-06
3.9718e-05
1.52038e-06
3.97043e-05
1.52474e-06
3.97068e-05
1.50128e-06
3.97235e-05
1.45116e-06
3.97516e-05
1.37824e-06
3.97872e-05
1.28829e-06
3.9827e-05
1.1877e-06
1.08243e-06
3.98679e-05
4.34111e-05
4.77965e-08
4.34026e-05
1.12439e-07
4.33894e-05
1.74084e-07
4.33727e-05
2.19127e-07
4.33528e-05
2.61689e-07
4.333e-05
3.009e-07
4.33042e-05
3.39081e-07
4.32757e-05
3.77101e-07
4.32442e-05
4.15805e-07
4.32097e-05
4.558e-07
4.31722e-05
4.9764e-07
4.31315e-05
5.418e-07
4.30874e-05
5.88757e-07
4.30399e-05
6.38942e-07
4.29887e-05
6.9278e-07
4.29338e-05
7.5075e-07
4.28751e-05
8.13004e-07
4.28127e-05
8.79574e-07
4.27468e-05
9.52241e-07
4.26778e-05
1.03025e-06
4.26065e-05
1.11191e-06
4.25342e-05
1.19568e-06
4.24629e-05
1.27932e-06
4.2395e-05
1.35937e-06
4.23336e-05
1.43124e-06
4.22821e-05
1.48952e-06
4.22435e-05
1.52866e-06
4.22199e-05
1.54391e-06
4.22123e-05
1.53241e-06
4.22196e-05
1.49396e-06
4.22396e-05
1.43114e-06
4.22691e-05
1.34873e-06
4.23047e-05
1.25272e-06
4.23432e-05
1.14917e-06
1.04342e-06
4.23822e-05
4.60843e-05
5.16465e-08
4.60752e-05
1.21526e-07
4.60612e-05
1.88119e-07
4.60435e-05
2.36804e-07
4.60224e-05
2.82782e-07
4.59982e-05
3.25138e-07
4.59709e-05
3.66368e-07
4.59406e-05
4.07409e-07
4.59072e-05
4.49166e-07
4.58707e-05
4.92289e-07
4.5831e-05
5.37361e-07
4.57879e-05
5.84875e-07
4.57414e-05
6.35321e-07
4.56912e-05
6.89124e-07
4.56373e-05
7.46695e-07
4.55796e-05
8.08435e-07
4.55181e-05
8.74496e-07
4.5453e-05
9.44635e-07
4.53848e-05
1.02045e-06
4.53139e-05
1.10118e-06
4.52413e-05
1.1845e-06
4.51687e-05
1.26831e-06
4.50982e-05
1.3498e-06
4.50326e-05
1.42494e-06
4.49751e-05
1.48876e-06
4.49288e-05
1.53587e-06
4.48962e-05
1.56126e-06
4.48788e-05
1.56129e-06
4.48766e-05
1.53457e-06
4.48882e-05
1.48239e-06
4.49109e-05
1.40846e-06
4.49415e-05
1.31815e-06
4.49768e-05
1.21742e-06
4.5014e-05
1.11188e-06
1.00621e-06
4.50513e-05
4.8922e-05
5.57302e-08
4.89124e-05
1.31172e-07
4.88975e-05
2.0301e-07
4.88788e-05
2.5556e-07
4.88564e-05
3.05157e-07
4.88307e-05
3.50846e-07
4.88017e-05
3.95303e-07
4.87696e-05
4.39538e-07
4.87343e-05
4.84518e-07
4.86956e-05
5.30934e-07
4.86536e-05
5.79399e-07
4.8608e-05
6.30421e-07
4.85588e-05
6.84496e-07
4.85059e-05
7.42032e-07
4.84492e-05
8.03418e-07
4.83887e-05
8.68948e-07
4.83244e-05
9.38773e-07
4.82568e-05
1.01231e-06
4.81863e-05
1.09087e-06
4.81137e-05
1.1738e-06
4.80402e-05
1.258e-06
4.79677e-05
1.34078e-06
4.78987e-05
1.4188e-06
4.78361e-05
1.48756e-06
4.7783e-05
1.54192e-06
4.77421e-05
1.57675e-06
4.77155e-05
1.58784e-06
4.7704e-05
1.57282e-06
4.77068e-05
1.53173e-06
4.77221e-05
1.46714e-06
4.77469e-05
1.38364e-06
4.77782e-05
1.28686e-06
4.7813e-05
1.18255e-06
4.78491e-05
1.07581e-06
9.70681e-07
4.78846e-05
5.19345e-05
6.00616e-08
5.19243e-05
1.4141e-07
5.19085e-05
2.18806e-07
5.18886e-05
2.75459e-07
5.18649e-05
3.2889e-07
5.18376e-05
3.7811e-07
5.18069e-05
4.25981e-07
5.17729e-05
4.7359e-07
5.17354e-05
5.21969e-07
5.16945e-05
5.71849e-07
5.165e-05
6.23869e-07
5.16019e-05
6.78552e-07
5.155e-05
7.36389e-07
5.14943e-05
7.97761e-07
5.14347e-05
8.63018e-07
5.13713e-05
9.32326e-07
5.13043e-05
1.00581e-06
5.12341e-05
1.08251e-06
5.11616e-05
1.16334e-06
5.10876e-05
1.24783e-06
5.10136e-05
1.33199e-06
5.09418e-05
1.41258e-06
5.08749e-05
1.48574e-06
5.08157e-05
1.54667e-06
5.07674e-05
1.59028e-06
5.07322e-05
1.61195e-06
5.07115e-05
1.60849e-06
5.07055e-05
1.57883e-06
5.07129e-05
1.52438e-06
5.07312e-05
1.44876e-06
5.07578e-05
1.35712e-06
5.07895e-05
1.25514e-06
5.08238e-05
1.14823e-06
5.08587e-05
1.04094e-06
9.36724e-07
5.08926e-05
5.51325e-05
6.46549e-08
5.51217e-05
1.52277e-07
5.51049e-05
2.35561e-07
5.50838e-05
2.96569e-07
5.50586e-05
3.54062e-07
5.50297e-05
4.0702e-07
5.49972e-05
4.58501e-07
5.49611e-05
5.09673e-07
5.49215e-05
5.61633e-07
5.48782e-05
6.15151e-07
5.48311e-05
6.70891e-07
5.47803e-05
7.29382e-07
5.47256e-05
7.91104e-07
5.46669e-05
8.56397e-07
5.46044e-05
9.25554e-07
5.45382e-05
9.98583e-07
5.44684e-05
1.07557e-06
5.43958e-05
1.15513e-06
5.43215e-05
1.23764e-06
5.42464e-05
1.3229e-06
5.41724e-05
1.40599e-06
5.41019e-05
1.48312e-06
5.40376e-05
1.55001e-06
5.39825e-05
1.60174e-06
5.39393e-05
1.63348e-06
5.39099e-05
1.64138e-06
5.3895e-05
1.62338e-06
5.38941e-05
1.57973e-06
5.39054e-05
1.51304e-06
5.39265e-05
1.42773e-06
5.39543e-05
1.32927e-06
5.39862e-05
1.22322e-06
5.40199e-05
1.11454e-06
5.40536e-05
1.00724e-06
9.04235e-07
5.40861e-05
5.85275e-05
6.95255e-08
5.85159e-05
1.6381e-07
5.84981e-05
2.53332e-07
5.84758e-05
3.18961e-07
5.84491e-05
3.80754e-07
5.84184e-05
4.3767e-07
5.83839e-05
4.92966e-07
5.83457e-05
5.47897e-07
5.83037e-05
6.03624e-07
5.82579e-05
6.60958e-07
5.82082e-05
7.20582e-07
5.81546e-05
7.83024e-07
5.8097e-05
8.48741e-07
5.80353e-05
9.18016e-07
5.79698e-05
9.91066e-07
5.79007e-05
1.06771e-06
5.78283e-05
1.14794e-06
5.77534e-05
1.23002e-06
5.76775e-05
1.31353e-06
5.76018e-05
1.39861e-06
5.75283e-05
1.47948e-06
5.74596e-05
1.55182e-06
5.73986e-05
1.61104e-06
5.73481e-05
1.6523e-06
5.73103e-05
1.67127e-06
5.72866e-05
1.66504e-06
5.72772e-05
1.63276e-06
5.7281e-05
1.57594e-06
5.72959e-05
1.49819e-06
5.73191e-05
1.40451e-06
5.73479e-05
1.30044e-06
5.73799e-05
1.19128e-06
5.74129e-05
1.08154e-06
5.74454e-05
9.74676e-07
8.73118e-07
5.74765e-05
6.21314e-05
7.46893e-08
6.21192e-05
1.7605e-07
6.21003e-05
2.72177e-07
6.20766e-05
3.42711e-07
6.20483e-05
4.09055e-07
6.20158e-05
4.7016e-07
6.19793e-05
5.29485e-07
6.19388e-05
5.88377e-07
6.18944e-05
6.48065e-07
6.18459e-05
7.09393e-07
6.17934e-05
7.73061e-07
6.17369e-05
8.39586e-07
6.16762e-05
9.09391e-07
6.16116e-05
9.82683e-07
6.15431e-05
1.05957e-06
6.14711e-05
1.13967e-06
6.13962e-05
1.2228e-06
6.13194e-05
1.3069e-06
6.12422e-05
1.39071e-06
6.11663e-05
1.47453e-06
6.10938e-05
1.55191e-06
6.10276e-05
1.61808e-06
6.09703e-05
1.66829e-06
6.09247e-05
1.69795e-06
6.08925e-05
1.70347e-06
6.08745e-05
1.68299e-06
6.08704e-05
1.63693e-06
6.08784e-05
1.5679e-06
6.08963e-05
1.4803e-06
6.09213e-05
1.37947e-06
6.09509e-05
1.27089e-06
6.09827e-05
1.15949e-06
6.10149e-05
1.04927e-06
6.10464e-05
9.43213e-07
8.43289e-07
6.10762e-05
6.59573e-05
8.0163e-08
6.59443e-05
1.89041e-07
6.59243e-05
2.92159e-07
6.58992e-05
3.67897e-07
6.58692e-05
4.39058e-07
6.58347e-05
5.04591e-07
6.5796e-05
5.68169e-07
6.57532e-05
6.31233e-07
6.57062e-05
6.95076e-07
6.5655e-05
7.60577e-07
6.55996e-05
8.28444e-07
6.554e-05
8.99173e-07
6.54763e-05
9.73136e-07
6.54085e-05
1.05044e-06
6.5337e-05
1.13107e-06
6.52623e-05
1.21439e-06
6.51851e-05
1.29998e-06
6.51066e-05
1.38548e-06
6.50285e-05
1.46879e-06
6.49528e-05
1.55016e-06
6.4882e-05
1.62271e-06
6.48188e-05
1.68133e-06
6.47658e-05
1.72125e-06
6.47254e-05
1.73837e-06
6.46989e-05
1.72999e-06
6.46865e-05
1.69542e-06
6.46872e-05
1.63624e-06
6.4699e-05
1.55605e-06
6.47195e-05
1.4598e-06
6.4746e-05
1.35299e-06
6.4776e-05
1.24086e-06
6.48076e-05
1.12795e-06
6.48391e-05
1.01777e-06
6.48695e-05
9.12812e-07
8.14668e-07
6.48981e-05
7.00188e-05
8.59642e-08
7.0005e-05
2.02826e-07
6.99838e-05
3.13343e-07
6.99571e-05
3.94602e-07
6.99253e-05
4.70857e-07
6.98888e-05
5.41073e-07
6.98479e-05
6.09135e-07
6.98025e-05
6.76587e-07
6.97528e-05
7.44783e-07
6.96988e-05
8.14634e-07
6.96404e-05
8.86845e-07
6.95777e-05
9.61881e-07
6.95107e-05
1.04004e-06
6.94399e-05
1.12132e-06
6.93654e-05
1.20552e-06
6.92881e-05
1.29175e-06
6.92088e-05
1.37925e-06
6.91289e-05
1.46541e-06
6.90503e-05
1.5473e-06
6.89756e-05
1.62495e-06
6.8907e-05
1.69128e-06
6.88473e-05
1.74101e-06
6.87991e-05
1.76948e-06
6.87641e-05
1.77333e-06
6.87433e-05
1.75085e-06
6.87361e-05
1.70254e-06
6.87413e-05
1.63107e-06
6.87565e-05
1.54081e-06
6.87792e-05
1.43709e-06
6.88069e-05
1.32535e-06
6.88372e-05
1.21056e-06
6.88684e-05
1.09678e-06
6.88991e-05
9.87047e-07
6.89285e-05
8.83433e-07
7.87183e-07
6.89559e-05
7.43304e-05
9.21111e-08
7.43158e-05
2.17455e-07
7.42933e-05
3.35797e-07
7.4265e-05
4.22914e-07
7.42313e-05
5.04553e-07
7.41927e-05
5.79716e-07
7.41493e-05
6.52503e-07
7.41013e-05
7.24563e-07
7.40488e-05
7.97312e-07
7.39917e-05
8.71684e-07
7.39302e-05
9.48374e-07
7.38643e-05
1.0278e-06
7.37942e-05
1.11017e-06
7.37202e-05
1.19532e-06
7.36428e-05
1.28285e-06
7.3563e-05
1.3716e-06
7.34819e-05
1.46037e-06
7.3401e-05
1.54631e-06
7.33225e-05
1.62573e-06
7.32492e-05
1.69827e-06
7.31835e-05
1.75704e-06
7.31279e-05
1.79659e-06
7.30847e-05
1.81264e-06
7.30554e-05
1.80268e-06
7.30401e-05
1.76614e-06
7.3038e-05
1.70465e-06
7.30472e-05
1.62182e-06
7.30654e-05
1.52262e-06
7.309e-05
1.41253e-06
7.31185e-05
1.29684e-06
7.31489e-05
1.18015e-06
7.31796e-05
1.06604e-06
7.32096e-05
9.57108e-07
7.3238e-05
8.55038e-07
7.60767e-07
7.32644e-05
7.89075e-05
9.86228e-08
7.88919e-05
2.32976e-07
7.88681e-05
3.59592e-07
7.88381e-05
4.52924e-07
7.88024e-05
5.40251e-07
7.87615e-05
6.20636e-07
7.87156e-05
6.98397e-07
7.86649e-05
7.75289e-07
7.86094e-05
8.52788e-07
7.85493e-05
9.31845e-07
7.84845e-05
1.01313e-06
7.84153e-05
1.097e-06
7.83419e-05
1.18354e-06
7.82648e-05
1.27241e-06
7.81847e-05
1.36296e-06
7.81026e-05
1.45372e-06
7.802e-05
1.54301e-06
7.79385e-05
1.62775e-06
7.78607e-05
1.70354e-06
7.77895e-05
1.76952e-06
7.77271e-05
1.8194e-06
7.76761e-05
1.84759e-06
7.76383e-05
1.85043e-06
7.76146e-05
1.82638e-06
7.76047e-05
1.77602e-06
7.76073e-05
1.70207e-06
7.76202e-05
1.6089e-06
7.7641e-05
1.50185e-06
7.76671e-05
1.38644e-06
7.76962e-05
1.26769e-06
7.77266e-05
1.14976e-06
7.77569e-05
1.03579e-06
7.7786e-05
9.27954e-07
7.78135e-05
8.27588e-07
7.3536e-07
7.78389e-05
8.37664e-05
1.05519e-07
8.37499e-05
2.49444e-07
8.37247e-05
3.84804e-07
8.36929e-05
4.84725e-07
8.36551e-05
5.78059e-07
8.36118e-05
6.63952e-07
8.35632e-05
7.46941e-07
8.35096e-05
8.28893e-07
8.34511e-05
9.11337e-07
8.33877e-05
9.95232e-07
8.33196e-05
1.08121e-06
8.32471e-05
1.16954e-06
8.31705e-05
1.26016e-06
8.30903e-05
1.35253e-06
8.30076e-05
1.4457e-06
8.29235e-05
1.53786e-06
8.28397e-05
1.62682e-06
8.27581e-05
1.70927e-06
8.26815e-05
1.78023e-06
8.26128e-05
1.83814e-06
8.25544e-05
1.87781e-06
8.25084e-05
1.89359e-06
8.24762e-05
1.88263e-06
8.24582e-05
1.84443e-06
8.24535e-05
1.78072e-06
8.24604e-05
1.69514e-06
8.24766e-05
1.59268e-06
8.24996e-05
1.47888e-06
8.25269e-05
1.35912e-06
8.25565e-05
1.23809e-06
8.25868e-05
1.1195e-06
8.26165e-05
1.00607e-06
8.26448e-05
8.99578e-07
8.26714e-05