/*--------------------------------*- C++ -*----------------------------------*\
| =========                 |                                                 |
| \\      /  F ield         | OpenFOAM: The Open Source CFD Toolbox           |
|  \\    /   O peration     | Version:  v1912                                 |
|   \\  /    A nd           | Website:  www.openfoam.com                      |
|    \\/     M anipulation  |                                                 |
\*---------------------------------------------------------------------------*/
FoamFile
{
    version     2.0;
    format      ascii;
    class       volScalarField;
    location    "0";
    object      Ma;
}
// * * * * * * * * * * * * * * * * * * * * * * * * * * * * * * * * * * * * * //

dimensions      [0 0 0 0 0 0 0];


internalField   uniform 0.6172680979278903;

boundaryField
{
    emptyPlanes
    {
        type            empty;
    }
    lowerWall
    {
        type            calculated;
        value           nonuniform List<scalar> 
150
(
0.6172680979278903
0.6172680979278903
0.6172680979278903
0.6172680979278903
0.6172680979278903
0.6172680979278903
0.6172680979278903
0.6172680979278903
0.6172680979278903
0.6172680979278903
0.6172680979278903
0.6172680979278903
0.6172680979278903
0.6172680979278903
0.6172680979278903
0.6172680979278903
0.6172680979278903
0.6172680979278903
0.6172680979278903
0.6172680979278903
0.6172680979278903
0.6172680979278903
0.6172680979278903
0.6172680979278903
0.6172680979278903
0.6172680979278903
0.6172680979278903
0.6172680979278903
0.6172680979278903
0.6172680979278903
0.6172680979278903
0.6172680979278903
0.6172680979278903
0.6172680979278903
0.6172680979278903
0.6172680979278903
0.6172680979278903
0.6172680979278903
0.6172680979278903
0.6172680979278903
0.6172680979278903
0.6172680979278903
0.6172680979278903
0.6172680979278903
0.6172680979278903
0.6172680979278903
0.6172680979278903
0.6172680979278903
0.6172680979278903
0.6172680979278903
0.5716427093585276
0.5752492264986023
0.5787122932427453
0.5820310460030296
0.5852046571791948
0.5882323353650907
0.5911133255460054
0.593846909286919
0.5964324049117068
0.5988691676730835
0.6011565899134242
0.6032941012162685
0.6052811685485802
0.6071172963936625
0.6088020268747301
0.6103349398690907
0.6117156531129093
0.612943822296531
0.6140191411503465
0.6149413415211685
0.6157101934390916
0.6163255051748511
0.616787123287629
0.6170949326633173
0.6172488565432268
0.6172488565432268
0.6170949326633173
0.616787123287629
0.6163255051748511
0.6157101934390916
0.614941341521168
0.6140191411503472
0.6129438222965317
0.6117156531129085
0.6103349398690907
0.6088020268747301
0.607117296393661
0.6052811685485814
0.6032941012162694
0.6011565899134242
0.598869167673082
0.5964324049117086
0.593846909286919
0.5911133255460035
0.5882323353650947
0.5852046571791928
0.5820310460030274
0.5787122932427476
0.5752492264986023
0.5716427093585276
0.6172680979278903
0.6172680979278903
0.6172680979278903
0.6172680979278903
0.6172680979278903
0.6172680979278903
0.6172680979278903
0.6172680979278903
0.6172680979278903
0.6172680979278903
0.6172680979278903
0.6172680979278903
0.6172680979278903
0.6172680979278903
0.6172680979278903
0.6172680979278903
0.6172680979278903
0.6172680979278903
0.6172680979278903
0.6172680979278903
0.6172680979278903
0.6172680979278903
0.6172680979278903
0.6172680979278903
0.6172680979278903
0.6172680979278903
0.6172680979278903
0.6172680979278903
0.6172680979278903
0.6172680979278903
0.6172680979278903
0.6172680979278903
0.6172680979278903
0.6172680979278903
0.6172680979278903
0.6172680979278903
0.6172680979278903
0.6172680979278903
0.6172680979278903
0.6172680979278903
0.6172680979278903
0.6172680979278903
0.6172680979278903
0.6172680979278903
0.6172680979278903
0.6172680979278903
0.6172680979278903
0.6172680979278903
0.6172680979278903
0.6172680979278903
)
;
    }
    upperWall
    {
        type            calculated;
        value           uniform 0.6172680979278903;
    }
    inlet
    {
        type            calculated;
        value           uniform 0.6171074137919054;
    }
    outlet
    {
        type            calculated;
        value           uniform 0.6172680979278904;
    }
}


// ************************************************************************* //
